material_id,formula_pretty,elements,nelements,composition,band_gap,formation_energy_per_atom,density
mp-1074772,Mg2Si,"[Element Mg, Element Si]",2,Mg8 Si4,0.0,0.112075691666666,2.088440494641832
mp-1074923,Mg7Si4,"[Element Mg, Element Si]",2,Mg14 Si8,0.0,0.08351657863636301,2.128747147472982
mp-1074927,Mg7Si4,"[Element Mg, Element Si]",2,Mg14 Si8,0.0,0.10776764500000001,2.107160109765244
mp-1074673,Mg4Si3,"[Element Mg, Element Si]",2,Mg16 Si12,0.0,0.11228421821428501,2.238084685591702
mp-1074843,Mg7Si4,"[Element Mg, Element Si]",2,Mg14 Si8,0.0,0.06865370045454501,2.144131445289156
mp-1074820,Mg7Si4,"[Element Mg, Element Si]",2,Mg14 Si8,0.0,0.102277938181817,2.116871198610318
mp-1074932,Mg3Si4,"[Element Mg, Element Si]",2,Mg6 Si8,0.0,0.151381643571428,2.4197442757867282
mp-1074676,Mg2Si,"[Element Mg, Element Si]",2,Mg8 Si4,0.0,0.090374675833333,2.228310306044164
mp-1074835,Mg7Si4,"[Element Mg, Element Si]",2,Mg14 Si8,0.0,0.069392851818181,2.087791872974095
mp-1074770,Mg2Si,"[Element Mg, Element Si]",2,Mg8 Si4,0.0,0.132538315833333,2.147769849196339
mp-1074788,Mg7Si4,"[Element Mg, Element Si]",2,Mg14 Si8,0.0,0.06905808363636301,2.108385107745016
mp-1074685,Mg2Si,"[Element Mg, Element Si]",2,Mg8 Si4,0.0,0.103315210833333,2.140424010408477
mp-1074832,Mg7Si4,"[Element Mg, Element Si]",2,Mg14 Si8,0.0,0.123094842272727,2.06913670644161
mp-1074917,Mg7Si4,"[Element Mg, Element Si]",2,Mg14 Si8,0.0,0.127395772272727,2.105957195746729
mp-1074733,Mg2Si,"[Element Mg, Element Si]",2,Mg8 Si4,0.0,0.13071904583333302,2.181056638996724
mp-1074863,Mg7Si4,"[Element Mg, Element Si]",2,Mg14 Si8,0.0,0.149071516818181,2.159298320327243
mp-1074916,Mg7Si4,"[Element Mg, Element Si]",2,Mg14 Si8,0.0,0.08840294454545401,2.17417517366005
mp-1074830,Mg7Si4,"[Element Mg, Element Si]",2,Mg14 Si8,0.0,0.08918690863636301,2.141439301819094
mp-1074846,Mg7Si4,"[Element Mg, Element Si]",2,Mg14 Si8,0.0,0.155674134545454,2.120001720411582
mp-1074856,Mg7Si4,"[Element Mg, Element Si]",2,Mg14 Si8,0.0,0.09702569999999901,2.147697108126066
mp-1074798,Mg7Si4,"[Element Mg, Element Si]",2,Mg14 Si8,0.0,0.12002294409090801,2.157029838991097
mp-1074803,Mg7Si4,"[Element Mg, Element Si]",2,Mg14 Si8,0.0,0.08580703818181801,2.11348316905945
mp-1074858,Mg7Si4,"[Element Mg, Element Si]",2,Mg14 Si8,0.0,0.121520604999999,2.154434677060683
mp-1074925,Mg7Si4,"[Element Mg, Element Si]",2,Mg14 Si8,0.0,0.118423213181818,2.167255395792464
mp-1074833,Mg7Si4,"[Element Mg, Element Si]",2,Mg14 Si8,0.0,0.08910173090909,2.12730277461992
mp-1074849,Mg7Si4,"[Element Mg, Element Si]",2,Mg14 Si8,0.0,0.069719945,2.131890884017145
mp-1074844,Mg7Si4,"[Element Mg, Element Si]",2,Mg14 Si8,0.0,0.12537226727272702,2.189350422848181
mp-1074887,Mg7Si4,"[Element Mg, Element Si]",2,Mg14 Si8,0.0,0.162751792727272,2.144237125043099
mp-1074855,Mg7Si4,"[Element Mg, Element Si]",2,Mg14 Si8,0.0,0.10809685681818201,2.18412405184615
mp-1074930,Mg7Si4,"[Element Mg, Element Si]",2,Mg14 Si8,0.0,0.121096556818181,2.144617794605872
mp-1074934,Mg3Si4,"[Element Mg, Element Si]",2,Mg6 Si8,0.0,0.154498970714285,2.313609421080548
mp-1075098,Mg3Si4,"[Element Mg, Element Si]",2,Mg6 Si8,0.0,0.168126211428571,2.399069088534943
mp-1075012,Mg3Si4,"[Element Mg, Element Si]",2,Mg6 Si8,0.0,0.143147659999999,2.355430218202397
mp-1075048,Mg3Si4,"[Element Mg, Element Si]",2,Mg6 Si8,0.0,0.23536898499999903,2.465743958240593
mp-1074957,Mg3Si4,"[Element Mg, Element Si]",2,Mg6 Si8,0.0,0.145236839999999,2.319761509403862
mp-1075013,Mg3Si4,"[Element Mg, Element Si]",2,Mg6 Si8,0.0,0.16664019,2.228514470813844
mp-1075009,Mg3Si4,"[Element Mg, Element Si]",2,Mg6 Si8,0.0,0.146440269999999,2.310119671563029
mp-1075104,Mg3Si4,"[Element Mg, Element Si]",2,Mg6 Si8,0.0,0.130419047857142,2.404499841210115
mp-1074960,Mg3Si4,"[Element Mg, Element Si]",2,Mg6 Si8,0.0,0.154597313571428,2.448034567424943
mp-1074938,Mg7Si4,"[Element Mg, Element Si]",2,Mg14 Si8,0.0,0.12348098727272601,2.065440214797407
mp-1075031,Mg3Si4,"[Element Mg, Element Si]",2,Mg6 Si8,0.0,0.168620029999999,2.39691557284238
mp-1075001,Mg3Si4,"[Element Mg, Element Si]",2,Mg12 Si16,0.0,0.14508701714285602,2.392865895217658
mp-1075016,Mg3Si4,"[Element Mg, Element Si]",2,Mg6 Si8,0.0,0.16504180928571302,2.418593748210375
mp-1075047,Mg3Si4,"[Element Mg, Element Si]",2,Mg6 Si8,0.0,0.19955636428571402,2.373886411059128
mp-1075198,Mg3Si4,"[Element Mg, Element Si]",2,Mg6 Si8,0.0,0.22179862714285603,2.311432843921753
mp-1075015,Mg3Si4,"[Element Mg, Element Si]",2,Mg6 Si8,0.0,0.160166629999999,2.29502813126053
mp-1075253,Mg3Si4,"[Element Mg, Element Si]",2,Mg12 Si16,0.0,0.172358147499999,2.39275049492852
mp-1075269,Mg3Si4,"[Element Mg, Element Si]",2,Mg6 Si8,0.0,0.158372105714285,2.303532708978919
mp-1075040,Mg3Si4,"[Element Mg, Element Si]",2,Mg6 Si8,0.0,0.18159750499999902,2.463232110293943
mp-1075196,Mg3Si4,"[Element Mg, Element Si]",2,Mg6 Si8,0.0,0.24036209285714202,2.452534731559391
mp-1075273,Mg3Si4,"[Element Mg, Element Si]",2,Mg6 Si8,0.0,0.186636338571428,2.451867658339068
mp-1075030,Mg3Si4,"[Element Mg, Element Si]",2,Mg6 Si8,0.0,0.171485600714285,2.45262574197645
mp-1075115,Mg3Si4,"[Element Mg, Element Si]",2,Mg6 Si8,0.0,0.17204518499999902,2.342177137840408
mp-1075011,Mg3Si4,"[Element Mg, Element Si]",2,Mg6 Si8,0.0,0.143055254285713,2.393241543055263
mp-1075025,Mg3Si4,"[Element Mg, Element Si]",2,Mg6 Si8,0.0,0.17741110928571402,2.403903985917416
mp-1075100,Mg3Si4,"[Element Mg, Element Si]",2,Mg6 Si8,0.0,0.15776130928571402,2.237219637210236
mp-1075132,Mg3Si4,"[Element Mg, Element Si]",2,Mg6 Si8,0.0,0.235921941428571,2.48529027895245
mp-1075168,Mg3Si4,"[Element Mg, Element Si]",2,Mg6 Si8,0.0,0.17404859285714203,2.383861054607473
mp-1075267,Mg3Si4,"[Element Mg, Element Si]",2,Mg6 Si8,0.0,0.17111960857142802,2.419289051475569
mp-1075035,Mg3Si4,"[Element Mg, Element Si]",2,Mg6 Si8,0.0,0.12319139999999901,2.30199882492271
mp-1075018,Mg3Si4,"[Element Mg, Element Si]",2,Mg6 Si8,0.0,0.178549141428571,2.379456915070204
mp-1075157,Mg3Si4,"[Element Mg, Element Si]",2,Mg6 Si8,0.0,0.143031970714285,2.25862787817625
mp-1075263,Mg3Si4,"[Element Mg, Element Si]",2,Mg6 Si8,0.0,0.15446078999999902,2.246696476716236
mp-1075217,Mg3Si4,"[Element Mg, Element Si]",2,Mg6 Si8,0.0,0.253272049285713,2.46085175877226
mp-1075113,Mg3Si4,"[Element Mg, Element Si]",2,Mg6 Si8,0.0,0.144782519285713,2.371890494719135
mp-1075036,Mg3Si4,"[Element Mg, Element Si]",2,Mg6 Si8,0.0,0.17648457642857002,2.4235215615103662
mp-1075139,Mg3Si4,"[Element Mg, Element Si]",2,Mg6 Si8,0.0,0.158933578571428,2.330452425126796
mp-1075203,Mg3Si4,"[Element Mg, Element Si]",2,Mg6 Si8,0.0,0.15571043928571401,2.2744114937797972
mp-1075111,Mg3Si4,"[Element Mg, Element Si]",2,Mg6 Si8,0.0,0.21163195642857002,2.494444330324518
mp-1075137,Mg3Si4,"[Element Mg, Element Si]",2,Mg6 Si8,0.0,0.142663112857142,2.315979013043494
mp-1075184,Mg3Si4,"[Element Mg, Element Si]",2,Mg6 Si8,0.0,0.157555577142856,2.411485491898288
mp-1075191,Mg3Si4,"[Element Mg, Element Si]",2,Mg6 Si8,0.0,0.179516763571428,2.355943733172326
mp-1075232,Mg3Si4,"[Element Mg, Element Si]",2,Mg6 Si8,0.0,0.19348175142857102,2.363312629663541
mp-1075045,Mg3Si4,"[Element Mg, Element Si]",2,Mg6 Si8,0.0,0.17366998785714202,2.261472827260847
mp-1075163,Mg3Si4,"[Element Mg, Element Si]",2,Mg6 Si8,0.0,0.22030231785714202,2.483800199303243
mp-1075240,Mg3Si4,"[Element Mg, Element Si]",2,Mg6 Si8,0.0,0.17234248428571403,2.389629601236854
mp-1075302,Mg3Si4,"[Element Mg, Element Si]",2,Mg6 Si8,0.0,0.20782135214285702,2.32752922078314
mp-1075371,Mg3Si4,"[Element Mg, Element Si]",2,Mg6 Si8,0.0,0.189803471428571,2.357764627662787
mp-1075355,Mg3Si4,"[Element Mg, Element Si]",2,Mg6 Si8,0.0,0.14701732142857102,2.210448897565874
mp-1075310,Mg3Si4,"[Element Mg, Element Si]",2,Mg6 Si8,0.0,0.22477581285714202,2.481368555159612
mp-1075466,Mg5Si6,"[Element Mg, Element Si]",2,Mg10 Si12,0.0,0.14398897000000002,2.362782971579597
mp-1075337,Mg3Si4,"[Element Mg, Element Si]",2,Mg6 Si8,0.0,0.184964322857142,2.30998250258695
mp-1075418,Mg5Si6,"[Element Mg, Element Si]",2,Mg10 Si12,0.0,0.15980827863636302,2.350457707288909
mp-1075483,Mg5Si6,"[Element Mg, Element Si]",2,Mg10 Si12,0.0,0.168652006363636,2.454270970803642
mp-1075368,Mg5Si6,"[Element Mg, Element Si]",2,Mg10 Si12,0.0,0.153600132272727,2.440796671748115
mp-1075486,Mg5Si6,"[Element Mg, Element Si]",2,Mg10 Si12,0.0,0.11035903409090801,2.314668737180061
mp-1075335,Mg3Si4,"[Element Mg, Element Si]",2,Mg12 Si16,0.0,0.13737579285714202,2.319412656134135
mp-1075360,Mg5Si6,"[Element Mg, Element Si]",2,Mg10 Si12,0.0,0.13804292727272702,2.364373533968426
mp-1075422,Mg5Si6,"[Element Mg, Element Si]",2,Mg10 Si12,0.0,0.160442198181818,2.365764454501454
mp-1075576,Mg5Si6,"[Element Mg, Element Si]",2,Mg10 Si12,0.0,0.155716452272727,2.406512502419883
mp-1075475,Mg5Si6,"[Element Mg, Element Si]",2,Mg10 Si12,0.0,0.16071377,2.453354039936918
mp-1075592,Mg5Si9,"[Element Mg, Element Si]",2,Mg10 Si18,0.0,0.19006620500000002,2.306573416346574
mp-1075363,Mg5Si6,"[Element Mg, Element Si]",2,Mg10 Si12,0.0,0.13277287227272702,2.243926739947128
mp-1075421,Mg5Si6,"[Element Mg, Element Si]",2,Mg10 Si12,0.0,0.180731204090909,2.387687587295996
mp-1075456,Mg3Si4,"[Element Mg, Element Si]",2,Mg6 Si8,0.0,0.254075509999999,2.353478313965076
mp-1075392,Mg3Si4,"[Element Mg, Element Si]",2,Mg6 Si8,0.0,0.240202474285713,2.212614119400397
mp-1075385,Mg5Si6,"[Element Mg, Element Si]",2,Mg10 Si12,0.0,0.182853416363636,2.414425846441134
mp-1075403,Mg5Si6,"[Element Mg, Element Si]",2,Mg10 Si12,0.0,0.15003213636363602,2.286074890982053
mp-1075578,Mg5Si6,"[Element Mg, Element Si]",2,Mg10 Si12,0.0,0.187610467272727,2.4305370971162352
mp-1075589,Mg5Si6,"[Element Mg, Element Si]",2,Mg10 Si12,0.0,0.19121402045454503,2.431556689242652
mp-1075499,Mg5Si6,"[Element Mg, Element Si]",2,Mg10 Si12,0.0,0.17858513454545402,2.239927428208826
mp-1075464,Mg5Si6,"[Element Mg, Element Si]",2,Mg10 Si12,0.0,0.18514282818181801,2.291656568614828
mp-1075482,Mg3Si4,"[Element Mg, Element Si]",2,Mg12 Si16,0.0,0.20781387857142802,2.379469124079869
mp-1075566,Mg5Si6,"[Element Mg, Element Si]",2,Mg10 Si12,0.0,0.151765153636363,2.37151638848953
mp-1075311,Mg3Si4,"[Element Mg, Element Si]",2,Mg6 Si8,0.0,0.12225866214285601,2.3333421739151943
mp-1075341,Mg3Si4,"[Element Mg, Element Si]",2,Mg6 Si8,0.0,0.174937675714285,2.300477239751631
mp-1075387,Mg5Si6,"[Element Mg, Element Si]",2,Mg10 Si12,0.0,0.137279214090909,2.367451809235994
mp-1075510,Mg5Si6,"[Element Mg, Element Si]",2,Mg10 Si12,0.0,0.12686635318181802,2.221873228543366
mp-1075505,Mg5Si6,"[Element Mg, Element Si]",2,Mg10 Si12,0.0,0.14200582363636402,2.322498802752024
mp-1075569,Mg5Si6,"[Element Mg, Element Si]",2,Mg10 Si12,0.0,0.15280606500000002,2.249107968197052
mp-1075573,Mg5Si6,"[Element Mg, Element Si]",2,Mg10 Si12,0.0,0.134216320454545,2.272926884112038
mp-1075495,Mg5Si6,"[Element Mg, Element Si]",2,Mg10 Si12,0.0,0.16414191363636302,2.396241053202247
mp-1075500,Mg5Si6,"[Element Mg, Element Si]",2,Mg10 Si12,0.0,0.16445581863636302,2.401421183999229
mp-1075570,Mg5Si6,"[Element Mg, Element Si]",2,Mg10 Si12,0.0,0.11556803454545402,2.329620850578346
mp-1075638,Mg5Si9,"[Element Mg, Element Si]",2,Mg10 Si18,0.0,0.21468324714285703,2.515869860785677
mp-1075610,Mg5Si9,"[Element Mg, Element Si]",2,Mg10 Si18,0.0,0.24733735178571403,2.537506955635758
mp-1075600,Mg5Si9,"[Element Mg, Element Si]",2,Mg10 Si18,0.0,0.1691414125,2.294180634992705
mp-1075622,Mg5Si9,"[Element Mg, Element Si]",2,Mg10 Si18,0.0,0.19433565821428503,2.468742191138367
mp-1075719,Mg5Si9,"[Element Mg, Element Si]",2,Mg10 Si18,0.0,0.201882565714286,2.331674404198591
mp-1075644,Mg5Si9,"[Element Mg, Element Si]",2,Mg10 Si18,0.0,0.207707531071428,2.48655831526859
mp-1075608,Mg5Si9,"[Element Mg, Element Si]",2,Mg10 Si18,0.0,0.184312409999999,2.336378022669609
mp-1075715,Mg5Si9,"[Element Mg, Element Si]",2,Mg10 Si18,0.0,0.17159297535714302,2.26935584722342
mp-1075635,Mg5Si9,"[Element Mg, Element Si]",2,Mg10 Si18,0.0,0.22724731357142802,2.518736779841105
mp-1075620,Mg5Si9,"[Element Mg, Element Si]",2,Mg10 Si18,0.0,0.21506826678571403,2.521889978919096
mp-1075649,Mg5Si9,"[Element Mg, Element Si]",2,Mg10 Si18,0.0,0.16255547357142802,2.286975573789889
mp-1075664,Mg5Si9,"[Element Mg, Element Si]",2,Mg10 Si18,0.0,0.161852478571428,2.255103948901806
mp-1075717,Mg5Si9,"[Element Mg, Element Si]",2,Mg10 Si18,0.0,0.20868852607142802,2.4033141467507733
mp-1075616,Mg5Si9,"[Element Mg, Element Si]",2,Mg10 Si18,0.0,0.24659973428571402,2.531878874844207
mp-1075627,Mg5Si9,"[Element Mg, Element Si]",2,Mg10 Si18,0.0,0.16885544178571402,2.312060066208912
mp-1075645,Mg5Si9,"[Element Mg, Element Si]",2,Mg10 Si18,0.0,0.20987458857142802,2.435532336781027
mp-1075640,Mg5Si9,"[Element Mg, Element Si]",2,Mg10 Si18,0.0,0.23929192214285702,2.48608989785266
mp-1075617,Mg5Si9,"[Element Mg, Element Si]",2,Mg10 Si18,0.0,0.23063917071428502,2.478096183770997
mp-1075674,Mg5Si9,"[Element Mg, Element Si]",2,Mg10 Si18,0.0,0.17336311821428602,2.32819803544604
mp-1075609,Mg5Si9,"[Element Mg, Element Si]",2,Mg10 Si18,0.0,0.24077366785714302,2.483028551702542
mp-1075655,Mg5Si9,"[Element Mg, Element Si]",2,Mg10 Si18,0.0,0.229706645714286,2.461127623384958
mp-1075660,Mg5Si9,"[Element Mg, Element Si]",2,Mg10 Si18,0.0,0.21904692785714203,2.460116426473166
mp-1075724,Mg5Si9,"[Element Mg, Element Si]",2,Mg10 Si18,0.0,0.194917953928571,2.250405994492202
mp-1075651,Mg5Si9,"[Element Mg, Element Si]",2,Mg10 Si18,0.0,0.23407184714285703,2.499754023577712
mp-1075658,Mg5Si9,"[Element Mg, Element Si]",2,Mg10 Si18,0.0,0.173325373928571,2.314019438230501
mp-1075666,Mg5Si9,"[Element Mg, Element Si]",2,Mg10 Si18,0.0,0.21812732357142803,2.515032471405407
mp-1075612,Mg5Si9,"[Element Mg, Element Si]",2,Mg10 Si18,0.0,0.208464522857142,2.464250753151847
mp-1075693,Mg5Si9,"[Element Mg, Element Si]",2,Mg10 Si18,0.0,0.22096572392857103,2.55352167873933
mp-1075723,Mg5Si9,"[Element Mg, Element Si]",2,Mg10 Si18,0.0,0.23990154607142802,2.56635974784174
mp-1075684,Mg5Si9,"[Element Mg, Element Si]",2,Mg10 Si18,0.0,0.23317737071428501,2.537542229680022
mp-1075720,Mg5Si9,"[Element Mg, Element Si]",2,Mg10 Si18,0.0,0.235921158571428,2.564363860209869
mp-1096951,CrN2,"[Element Cr, Element N]",2,Cr24 N48,0.09539999999999901,-0.149949711249999,2.14669982996845
mp-1075725,Mg5Si9,"[Element Mg, Element Si]",2,Mg10 Si18,0.0,0.211479338571428,2.52042067318931
mp-1080299,CeSe2,"[Element Ce, Element Se]",2,Ce4 Se8,0.3951,-1.591002569895831,3.764140359996233
mp-1080350,CeSe2,"[Element Ce, Element Se]",2,Ce3 Se6,0.4606,-1.8365744393402772,5.639994127241497
mp-1096889,CrN2,"[Element Cr, Element N]",2,Cr4 N8,0.066,0.088289490416668,3.189028450687638
mp-1096901,CrN2,"[Element Cr, Element N]",2,Cr4 N8,0.0,-0.102411252083333,2.615123321471319
mp-1100467,MgSi2,"[Element Mg, Element Si]",2,Mg4 Si8,0.0,0.16022088416666602,2.300156901621571
mp-1075742,Mg5Si9,"[Element Mg, Element Si]",2,Mg10 Si18,0.0,0.22863413964285703,2.443693002831609
mp-1100446,Mg4Si7,"[Element Mg, Element Si]",2,Mg8 Si14,0.0,0.18277449045454502,2.485028472524749
mp-1100471,Mg5Si6,"[Element Mg, Element Si]",2,Mg10 Si12,0.0,0.154197067727273,2.3669542612950902
mp-1100469,MgSi2,"[Element Mg, Element Si]",2,Mg4 Si8,0.0,0.17980852666666602,2.408122051060624
mp-1075741,Mg5Si9,"[Element Mg, Element Si]",2,Mg10 Si18,0.0,0.17665867750000003,2.319422427541777
mp-1080334,CeSe2,"[Element Ce, Element Se]",2,Ce4 Se8,0.44120000000000004,-1.717833589062498,4.6315517905313985
mp-1100929,V9O20,"[Element O, Element V]",2,V9 O20,1.2888,-1.5632054606896562,3.477591384831655
mp-1080250,CeSe2,"[Element Ce, Element Se]",2,Ce4 Se8,0.696199999999999,-1.422928269895831,3.246233055167186
mp-1100713,Mg4Si3,"[Element Mg, Element Si]",2,Mg8 Si6,0.0,0.07046033285714301,2.276534535297688
mp-1075779,Mg5Si9,"[Element Mg, Element Si]",2,Mg10 Si18,0.0,0.24321829142857102,2.553831557514612
mp-1080317,CeSe2,"[Element Ce, Element Se]",2,Ce4 Se8,0.7756000000000001,-1.409690708229164,2.549603446076466
mp-1075734,Mg5Si9,"[Element Mg, Element Si]",2,Mg10 Si18,0.0,0.24594398178571403,2.533082450826191
mp-1080255,CeSe2,"[Element Ce, Element Se]",2,Ce4 Se8,0.976599999999999,-1.406841858229165,2.072195415879205
mp-1080267,CeSe2,"[Element Ce, Element Se]",2,Ce4 Se8,0.9767000000000001,-1.4113295740624991,2.5451082739448
mp-1080324,CeSe2,"[Element Ce, Element Se]",2,Ce4 Se8,0.48949999999999905,-1.449276404062498,2.896977245772696
mp-1096899,CrN2,"[Element Cr, Element N]",2,Cr4 N8,0.09919999999999901,-0.017640153749998,3.139832321286321
mp-1096900,CrN2,"[Element Cr, Element N]",2,Cr4 N8,0.0,-0.013618963749998,2.668979685490329
mp-1096928,CrN2,"[Element Cr, Element N]",2,Cr3 N6,0.0,-0.126805092361109,2.572737707163985
mp-1100448,Mg3Si4,"[Element Mg, Element Si]",2,Mg6 Si8,0.0,0.17046489857142802,2.358369800810399
mp-1100472,Mg5Si6,"[Element Mg, Element Si]",2,Mg10 Si12,0.0,0.14512030227272701,2.37364272777948
mp-1075731,Mg5Si9,"[Element Mg, Element Si]",2,Mg10 Si18,0.0,0.195393295357142,2.520038459133514
mp-1096920,Cr3O5,"[Element Cr, Element O]",2,Cr3 O5,0.698399999999999,-1.8868032293750001,3.581031702848683
mp-1100973,V11S16,"[Element S, Element V]",2,V11 S16,0.0,-0.9590584751851841,3.264395640503168
mp-1075744,Mg5Si9,"[Element Mg, Element Si]",2,Mg10 Si18,0.0,0.24314692714285702,2.499434440667917
mp-1100447,Mg4Si7,"[Element Mg, Element Si]",2,Mg8 Si14,0.0,0.18644175318181802,2.498412867758915
mp-1101121,Ti20Se19,"[Element Se, Element Ti]",2,Ti20 Se19,0.0,-1.2737880418255871,5.871406906438824
mp-1075761,Mg5Si9,"[Element Mg, Element Si]",2,Mg10 Si18,0.0,0.17286230071428502,2.31853365552793
mp-1075766,Mg5Si9,"[Element Mg, Element Si]",2,Mg10 Si18,0.0,0.227932049285714,2.548623072264533
mp-1096886,CrN2,"[Element Cr, Element N]",2,Cr4 N8,0.0637,-0.082748113749999,2.158363930288321
mp-1182503,Fe8O17,"[Element Fe, Element O]",2,Fe16 O34,0.0,-1.115156043999999,3.8354945621335332
mp-1179615,W17O47,"[Element O, Element W]",2,W17 O47,0.0,-1.289378024140624,6.252573972027838
mp-1178822,VC3,"[Element C, Element V]",2,V8 C24,0.0,0.5953324588194431,4.11697997671233
mp-1103007,UO11,"[Element O, Element U]",2,U1 O11,0.1741,-0.8265416520833331,2.434843074248535
mp-1203554,Al4Si19,"[Element Al, Element Si]",2,Al8 Si38,0.0,0.232256784347825,1.894354439101722
mp-1182249,Fe3O4,"[Element Fe, Element O]",2,Fe24 O32,0.739899999999999,-1.592805579821429,4.828675635737682
mp-1217322,TeSe,"[Element Se, Element Te]",2,Te3 Se3,0.7062,-0.010930726197914001,5.345475456222573
mp-1219328,SeS7,"[Element S, Element Se]",2,Se3 S21,1.8983,0.018885357239584,2.195169852453091
mp-1216446,V9Te8,"[Element Te, Element V]",2,V9 Te8,0.0,-0.499640432549018,6.3194481756694625
mp-1212508,Mg5Mn3,"[Element Mg, Element Mn]",2,Mg10 Mn6,0.0,0.287665940775862,3.172471772759093
mp-1179651,Si5O8,"[Element O, Element Si]",2,Si10 O16,3.4528,-2.7177123315384613,1.775486230907172
mp-1173348,Sb26O53,"[Element O, Element Sb]",2,Sb26 O53,0.942199999999999,-1.407049391202531,6.064081578313478
mp-1173504,NbS2,"[Element Nb, Element S]",2,Nb3 S6,0.0,-1.310397668333332,3.135806549268075
mp-1120811,Ca2O3,"[Element Ca, Element O]",2,Ca16 O24,0.19689999999999902,-2.4321373745,2.62521308091353
mp-1143546,LiS4,"[Element Li, Element S]",2,Li2 S8,2.2075,-0.24543709558333202,0.234823623937765
mp-1218141,Ta2O5,"[Element O, Element Ta]",2,Ta2 O5,2.5913,-3.191352414238095,6.831685894755988
mp-1185276,Fe3O4,"[Element Fe, Element O]",2,Fe24 O32,0.637,-1.586393616071428,4.83540399589643
mp-1214795,BiI5,"[Element Bi, Element I]",2,Bi4 I20,0.06819999999999901,-0.497697426249999,2.9711624947683872
mp-1214306,Ca8In3,"[Element Ca, Element In]",2,Ca16 In6,0.0,-0.41740585681818104,2.9840878893188423
mp-1178875,UO11,"[Element O, Element U]",2,U1 O11,0.0,-0.917663627083333,2.2237463556847192
mp-1220657,Nb3S5,"[Element Nb, Element S]",2,Nb6 S10,0.06570000000000001,-1.419639321562498,4.898179977139635
mp-1184796,H3F2,"[Element F, Element H]",2,H6 F4,8.0745,-1.406990803749999,1.262611080199545