material_id,formula_pretty,elements,nelements,composition,band_gap,formation_energy_per_atom,density
mp-1103897,ZnN6,"[Element N, Element Zn]",2,Zn2 N12,3.418199999999999,0.38868486047619005,2.360324792456776
mp-1195198,H3S,"[Element H, Element S]",2,H24 S8,4.3472,-0.11776185914062501,1.041383987350392
mp-1216020,Zn35Cu17,"[Element Cu, Element Zn]",2,Zn35 Cu17,0.0,-0.10122845576923001,7.949086791257229
mp-1219820,Sr21Hg109,"[Element Hg, Element Sr]",2,Sr21 Hg109,0.0,-0.280317985788467,10.995341018539962
mp-1215724,ZnAg,"[Element Ag, Element Zn]",2,Zn9 Ag9,0.0,-0.024742943508774002,8.78710194890394
mp-1236127,LiO8,"[Element Li, Element O]",2,Li1 O8,0.08889999999999901,-0.411361199259259,1.902559815234679
mp-1221884,Mo13O33,"[Element Mo, Element O]",2,Mo13 O33,0.0,-1.911595033804348,4.5361396781755055
mp-1222233,Mn23As16,"[Element As, Element Mn]",2,Mn23 As16,0.0,-0.137480098267022,7.164269249159892
mp-1244872,BN,"[Element B, Element N]",2,B50 N50,1.5766,-0.7714379132250001,1.574835018232765
mp-1232391,Nb4O9,"[Element Nb, Element O]",2,Nb4 O9,0.0,-2.7858768373076943,4.783240209175582
mp-1239183,MoS3,"[Element Mo, Element S]",2,Mo1 S3,0.014299999999999001,0.7721378203125011,1.149118597402894
mp-1244647,Mg3Si4,"[Element Mg, Element Si]",2,Mg6 Si8,0.0,0.218762182142857,2.295986509521042
mp-1224870,Ga5Ag13,"[Element Ag, Element Ga]",2,Ga5 Ag13,0.0,-0.0029189840740690004,9.707136481987899
mp-1232999,LiO8,"[Element Li, Element O]",2,Li1 O8,0.152099999999999,-0.410251224814815,1.985847494723534
mp-1224298,In3Pt4,"[Element In, Element Pt]",2,In9 Pt12,0.0,-0.5447723090476191,14.60523272142212
mp-1225980,Cu19Sn16,"[Element Cu, Element Sn]",2,Cu19 Sn16,0.0,0.016392744000001,7.979944302774651
mp-1244866,GaN,"[Element Ga, Element N]",2,Ga50 N50,0.0,-0.011633118375000001,4.502929429161724
mp-1244869,Fe2O3,"[Element Fe, Element O]",2,Fe32 O48,0.220199999999999,-1.417581733999999,4.319354363385391
mp-1244870,TaN,"[Element N, Element Ta]",2,Ta50 N50,0.030000000000000002,-0.8953931971083371,12.93116182984754
mp-1244874,Al2O3,"[Element Al, Element O]",2,Al40 O60,3.626,-3.187087249999999,3.065754474647376
mp-1244644,Mg4Si3,"[Element Mg, Element Si]",2,Mg8 Si6,0.0,0.159922186428571,2.040991952124303
mp-1237695,Mg4Si3,"[Element Mg, Element Si]",2,Mg8 Si6,0.0,0.176592653571428,2.099095421849946
mp-1244867,CoO2,"[Element Co, Element O]",2,Co30 O60,0.0,-0.43809933244444504,3.723904642708839
mp-1228098,Ho6Ge11,"[Element Ge, Element Ho]",2,Ho12 Ge22,0.0,-0.5290864947058801,8.01320821936718
mp-1228811,B11Rh18,"[Element B, Element Rh]",2,B11 Rh18,0.0,-0.32163021543103304,10.249988868770085
mp-1244871,BaO,"[Element Ba, Element O]",2,Ba50 O50,1.704899999999999,-2.6192757129,4.955755089495295
mp-1244868,Al2O3,"[Element Al, Element O]",2,Al40 O60,3.5103,-3.210908088599999,3.011655889265797
mp-1244878,Al2O3,"[Element Al, Element O]",2,Al40 O60,3.4995,-3.221613839199999,3.037089970314209
mp-1244884,GaN,"[Element Ga, Element N]",2,Ga50 N50,0.16059999999999902,0.022242420224999,4.445846364785013
mp-1244882,CoO,"[Element Co, Element O]",2,Co40 O40,0.2197,-0.8700932445,4.766298154811251
mp-1244885,HfO2,"[Element Hf, Element O]",2,Hf34 O68,3.4783,-3.7653005874509793,8.847975226452482
mp-1244880,WO2,"[Element O, Element W]",2,W34 O68,0.735399999999999,-1.506657903921568,7.505981325750231
mp-1244889,V2O5,"[Element O, Element V]",2,V30 O75,0.5422,-2.180903155095238,2.488547907596506
mp-1244888,Y2O3,"[Element O, Element Y]",2,Y40 O60,2.9084000000000003,-3.7114601861,4.704693597244767
mp-1244879,In2O3,"[Element In, Element O]",2,In40 O60,0.0,-1.370573494566665,6.024797746092476
mp-1244886,GaN,"[Element Ga, Element N]",2,Ga50 N50,0.04870000000000001,0.034985126824999005,4.539397962306752
mp-1244877,GaSb,"[Element Ga, Element Sb]",2,Ga50 Sb50,0.0,0.10466368710000001,5.596654613845908
mp-1244883,HfO2,"[Element Hf, Element O]",2,Hf34 O68,3.7691,-3.790489710490195,8.957833639278316
mp-1244881,NbO2,"[Element Nb, Element O]",2,Nb34 O68,0.042699999999999,-2.689761823431373,4.561569565446023
mp-1244887,Al2O3,"[Element Al, Element O]",2,Al40 O60,4.003399999999999,-3.2081808543,3.141732795265762
mp-1244895,GaSb,"[Element Ga, Element Sb]",2,Ga50 Sb50,0.0,0.055586474800002006,5.840288745075335
mp-1244890,ZnS,"[Element S, Element Zn]",2,Zn50 S50,0.9376000000000001,-0.513779709363392,3.2334152880082963
mp-1244893,Al8O3,"[Element Al, Element O]",2,Al32 O12,0.0,-1.389686964545454,1.245751515363915
mp-1244894,SnO2,"[Element O, Element Sn]",2,Sn34 O68,0.0,-1.325550128823529,5.851361985193295
mp-1244900,Ga2O3,"[Element Ga, Element O]",2,Ga32 O48,2.0373,-2.1220194785,4.766976195041549
mp-1244897,P2O5,"[Element O, Element P]",2,P30 O75,0.006999999999999001,-1.723617410707483,1.8937127843405601
mp-1244896,GaN,"[Element Ga, Element N]",2,Ga50 N50,0.0327,0.07418366012499901,3.021456985238695
mp-1244892,Al2O3,"[Element Al, Element O]",2,Al40 O60,3.6741,-3.180039557699999,3.120490371789278
mp-1244898,Al2O3,"[Element Al, Element O]",2,Al40 O60,3.6405000000000003,-3.19684221,3.221324248208888
mp-1244899,GaAs,"[Element As, Element Ga]",2,Ga50 As50,0.007699999999999,-0.03577590605,4.982356324436611
mp-1244903,GaN,"[Element Ga, Element N]",2,Ga50 N50,0.06910000000000001,0.045202422024999,3.064031680453716
mp-1244901,V2O5,"[Element O, Element V]",2,V30 O75,0.47650000000000003,-1.7602444074761912,2.701749468535555
mp-1244902,CaO,"[Element Ca, Element O]",2,Ca50 O50,2.1384,-2.9949175511000004,2.810222594042136
mp-1244914,Si3N4,"[Element N, Element Si]",2,Si45 N60,0.907099999999999,-0.6793323813809511,2.853591268741165
mp-1244904,V2O5,"[Element O, Element V]",2,V30 O75,0.8101,-1.805413508428572,2.398421170984265
mp-1244912,Cr2O3,"[Element Cr, Element O]",2,Cr32 O48,0.523899999999999,-1.943265076625,4.282364478386051
mp-1244916,GaN,"[Element Ga, Element N]",2,Ga50 N50,0.034399999999999,-0.020918318574999,4.434173095030691
mp-1244919,BeO,"[Element Be, Element O]",2,Be50 O50,4.4524,-2.838604064200001,2.5121806162951703
mp-1244918,Al2O3,"[Element Al, Element O]",2,Al40 O60,3.4320999999999993,-3.140182013699999,3.009324983756755
mp-1244907,BeO,"[Element Be, Element O]",2,Be50 O50,4.4843,-2.845416666000001,2.585868833140669
mp-1244906,WO3,"[Element O, Element W]",2,W25 O75,1.903299999999999,-1.796305214349999,5.810753554332714
mp-1244909,Al2O3,"[Element Al, Element O]",2,Al40 O60,3.8764000000000003,-3.255088887199999,3.122748813671323
mp-1244911,Fe2O3,"[Element Fe, Element O]",2,Fe32 O48,0.283199999999999,-1.433196488874999,4.336495594126958
mp-1244917,BN,"[Element B, Element N]",2,B50 N50,1.1992,-0.49678685532500105,1.588014033423129
mp-1244925,V2O5,"[Element O, Element V]",2,V30 O75,0.5285000000000001,-1.791012022619048,2.399810883694031
mp-1244920,V2O5,"[Element O, Element V]",2,V30 O75,0.9453,-1.808164423285716,2.346417893848437
mp-1244926,TiO,"[Element O, Element Ti]",2,Ti50 O50,0.006899999999999001,-2.5828635697666673,4.433549138365065
mp-1244928,Al2O3,"[Element Al, Element O]",2,Al40 O60,3.189599999999999,-3.1929039603,2.9795742102623772
mp-1244929,WO3,"[Element O, Element W]",2,W25 O75,1.7942,-1.959099779649999,5.631531661688818
mp-1244930,Al2O3,"[Element Al, Element O]",2,Al40 O60,3.8784,-3.244453830799999,3.120024534475669
mp-1244932,Ga2O3,"[Element Ga, Element O]",2,Ga32 O48,1.8296000000000001,-2.082532509625,4.9125815186701605
mp-1244927,GaN,"[Element Ga, Element N]",2,Ga50 N50,0.13209999999999902,0.032129691625000005,4.716331234233764
mp-1244921,ZnS,"[Element S, Element Zn]",2,Zn50 S50,1.0285,-0.521620586363392,3.377444849883982
mp-1244922,ZnS,"[Element S, Element Zn]",2,Zn50 S50,0.6826000000000001,-0.5456069979633921,3.381236900669817
mp-1244934,GaN,"[Element Ga, Element N]",2,Ga50 N50,0.0,0.016198591224999,4.387677305495918
mp-1244938,Ga2O3,"[Element Ga, Element O]",2,Ga32 O48,2.1521,-2.101939259625,4.743864295561089
mp-1244935,SnO2,"[Element O, Element Sn]",2,Sn30 O60,0.5225999999999991,-1.423119619333332,5.712888539944425
mp-1244939,CoO,"[Element Co, Element O]",2,Co40 O40,0.258099999999999,-0.8624241946250011,4.987670439084296
mp-1244936,ZnS,"[Element S, Element Zn]",2,Zn50 S50,1.2177,-0.519685307463391,3.431013214059465
mp-1244940,Al2O3,"[Element Al, Element O]",2,Al40 O60,3.7617000000000003,-3.2373862449,3.138967693779952
mp-1244942,V2O5,"[Element O, Element V]",2,V30 O75,0.16260000000000002,-1.769694377380953,2.421179949474257
mp-1244944,TiO,"[Element O, Element Ti]",2,Ti50 O50,0.0,-2.606007524266667,4.454019641484404
mp-1244945,SiO2,"[Element O, Element Si]",2,Si30 O60,5.016999999999999,-3.15194057,2.082094202127012
mp-1244946,TaN,"[Element N, Element Ta]",2,Ta50 N50,0.043899999999999,-0.8399539466083341,12.596235236609008
mp-1244941,SnO2,"[Element O, Element Sn]",2,Sn34 O68,0.31610000000000005,-1.3630701143137252,5.752383029018036
mp-1244943,BN,"[Element B, Element N]",2,B50 N50,1.1885,-0.756249825124999,1.70808972847888
mp-1244937,Al2O3,"[Element Al, Element O]",2,Al40 O60,3.713799999999999,-3.2125296453,3.028313019257639
mp-1244947,Al2O3,"[Element Al, Element O]",2,Al40 O60,4.084,-3.258001408699999,3.123375493505625
mp-1244956,Ti3O,"[Element O, Element Ti]",2,Ti75 O25,0.0,-1.219118493649999,4.553156436256109
mp-1244949,Y2O3,"[Element O, Element Y]",2,Y40 O60,3.0469,-3.7279144394,4.724422757644054
mp-1244955,Ti2O,"[Element O, Element Ti]",2,Ti68 O34,0.0,-1.699073769183006,4.52673664745124
mp-1244960,AlF3,"[Element Al, Element F]",2,Al25 F75,5.6276,-3.682677069399999,2.8524823864532722
mp-1244967,Al2O3,"[Element Al, Element O]",2,Al40 O60,3.9432,-3.2549415863,3.083351350988295
mp-1244962,MgO,"[Element Mg, Element O]",2,Mg40 O40,2.202499999999999,-2.709007456874999,2.836858446794562
mp-1244948,CoO2,"[Element Co, Element O]",2,Co30 O60,0.0128,-0.37509983755555504,4.066161734206108
mp-1244961,V2O5,"[Element O, Element V]",2,V30 O75,0.8882,-1.775249773000001,2.439309167376228
mp-1244966,MoO3,"[Element Mo, Element O]",2,Mo25 O75,1.2346,-1.398598465450001,3.068551221380661
mp-1244965,SiO2,"[Element O, Element Si]",2,Si34 O68,1.5998,-3.089458676470588,2.064175140948997
mp-1244954,Al2O3,"[Element Al, Element O]",2,Al40 O60,3.5223999999999993,-3.2323775404,3.022034139170224
mp-1244963,BeO,"[Element Be, Element O]",2,Be50 O50,4.7618,-2.8137379631000012,2.501733582891131
mp-1244970,Al2O3,"[Element Al, Element O]",2,Al40 O60,3.3243,-3.185849433899999,3.052167209132618
mp-1244980,ZnS,"[Element S, Element Zn]",2,Zn50 S50,1.4016,-0.618171767763392,3.337210721784858
mp-1244979,ZnS,"[Element S, Element Zn]",2,Zn50 S50,0.8320999999999991,-0.48076335556339206,3.421671622698515
mp-1244969,ZnS,"[Element S, Element Zn]",2,Zn50 S50,0.1129,-0.5348122423633921,3.477614935211221
mp-1244972,Si3N4,"[Element N, Element Si]",2,Si45 N60,0.9524999999999991,-0.6683466105238091,2.837482979606902
mp-1244978,V2O5,"[Element O, Element V]",2,V30 O75,0.12050000000000001,-1.7781061277619061,2.338902481238311
mp-1244968,SiO2,"[Element O, Element Si]",2,Si34 O68,2.9151,-3.020733697549019,2.011112768518672
mp-1244973,NbO2,"[Element Nb, Element O]",2,Nb34 O68,0.051800000000000006,-2.637964332156863,4.796344135355287
mp-1244981,Al2O3,"[Element Al, Element O]",2,Al40 O60,2.0628,-2.9921398197999993,3.037864871797658
mp-1244974,ZnS,"[Element S, Element Zn]",2,Zn50 S50,0.9256000000000001,-0.49705861636339205,3.551954055814996
mp-1244975,GaN,"[Element Ga, Element N]",2,Ga50 N50,0.08749999999999901,-0.052312033475000005,4.622711023442806
mp-1244977,TaN,"[Element N, Element Ta]",2,Ta50 N50,0.0,-0.8543081234083361,11.976683810231272
mp-1244983,FeO,"[Element Fe, Element O]",2,Fe40 O40,0.29050000000000004,-1.203698771,4.367429083951232
mp-1244995,GaN,"[Element Ga, Element N]",2,Ga50 N50,0.155699999999999,-0.038713688775001004,4.691954142646173
mp-1244985,V2O5,"[Element O, Element V]",2,V30 O75,0.5233,-1.7644251903333341,2.4618513986763872
mp-1244994,Al2O3,"[Element Al, Element O]",2,Al40 O60,3.7363,-3.187712861399999,3.038875862431403
mp-1244988,Cr2O3,"[Element Cr, Element O]",2,Cr32 O48,0.3521,-1.9595849845000002,4.134061006106509
mp-1244984,GaN,"[Element Ga, Element N]",2,Ga50 N50,0.0,0.071624394924999,3.086499099876794
mp-1244986,ZnS,"[Element S, Element Zn]",2,Zn50 S50,1.4278,-0.5367029766633921,3.256978307152291
mp-1244989,ZnS,"[Element S, Element Zn]",2,Zn50 S50,0.9544999999999991,-0.559266711463392,3.521333357741026
mp-1244991,BN,"[Element B, Element N]",2,B50 N50,1.5503,-0.6700957213250011,1.742592740404906
mp-1244982,Al2O3,"[Element Al, Element O]",2,Al40 O60,3.8673,-3.232635762499999,3.03798641639281
mp-1244992,Al2O3,"[Element Al, Element O]",2,Al40 O60,2.9973,-3.219981943699999,3.126775577352322
mp-1244996,V2O5,"[Element O, Element V]",2,V30 O75,0.9218000000000001,-2.170969663666667,2.297726220799555
mp-1245002,GaN,"[Element Ga, Element N]",2,Ga50 N50,0.0001,0.028080117325,4.5488402243599335
mp-1244998,GaN,"[Element Ga, Element N]",2,Ga50 N50,0.0,0.098145610125,4.441805932897687
mp-1245000,V2O5,"[Element O, Element V]",2,V30 O75,0.033399999999999,-2.184442932428572,2.178502631804714
mp-1245004,ZnS,"[Element S, Element Zn]",2,Zn50 S50,0.8065000000000001,-0.5124576044633921,3.461028215789759
mp-1244997,Al2O3,"[Element Al, Element O]",2,Al40 O60,3.4465,-3.155683487799999,3.014714001791231
mp-1244999,GaAs,"[Element As, Element Ga]",2,Ga50 As50,0.0,0.014016871650001001,5.159991630861198
mp-1245011,CoO2,"[Element Co, Element O]",2,Co30 O60,0.023500000000000004,-0.37523682144444404,3.832944308343416
mp-1245005,V2O5,"[Element O, Element V]",2,V30 O75,0.6144000000000001,-1.7788165978571442,2.5271615526972653
mp-1245009,Li2O,"[Element Li, Element O]",2,Li68 O34,2.723,-1.8997470075163392,1.6835606574999091
mp-1245001,FeO,"[Element Fe, Element O]",2,Fe40 O40,0.0459,-1.16118119475,4.3627101889764255
mp-1245008,Al2O3,"[Element Al, Element O]",2,Al40 O60,3.846299999999999,-3.206686923899999,3.093856184565863
mp-1245010,SbN,"[Element N, Element Sb]",2,Sb50 N50,0.070899999999999,0.20282104310000001,2.763866575243015
mp-1245012,VO2,"[Element O, Element V]",2,V34 O68,0.8943000000000001,-2.24444660372549,3.118984921087794
mp-1245020,WO2,"[Element O, Element W]",2,W34 O68,0.9297000000000001,-1.527800675980391,7.879702295359329
mp-1245018,Ga2O3,"[Element Ga, Element O]",2,Ga32 O48,2.0229,-2.09436509725,4.725739099939927
mp-1245027,SnO2,"[Element O, Element Sn]",2,Sn30 O60,0.671299999999999,-1.466067334333332,6.028074348373774
mp-1245014,SbN,"[Element N, Element Sb]",2,Sb50 N50,0.0887,0.243352964399998,2.829415694001084
mp-1245022,In2O3,"[Element In, Element O]",2,In40 O60,0.6707999999999991,-1.412374282166665,6.049906121422174
mp-1245015,ZnO,"[Element O, Element Zn]",2,Zn40 O40,1.2763,-1.541949366625,4.835097081422673
mp-1245017,Y2O3,"[Element O, Element Y]",2,Y40 O60,2.8211,-3.7140398857,4.6489365988935525
mp-1245013,GaN,"[Element Ga, Element N]",2,Ga50 N50,0.0874,0.047488569524998005,4.482347166729931
mp-1245025,B2O3,"[Element B, Element O]",2,B40 O60,4.1254,-2.7348864954666663,1.806635430046207
mp-1245026,SiO2,"[Element O, Element Si]",2,Si34 O68,1.9065,-3.108552013823529,2.085773287810811
mp-1245019,Fe2O3,"[Element Fe, Element O]",2,Fe32 O48,1.1378,-1.418439139625,4.1502131193736
mp-1245024,Al2O3,"[Element Al, Element O]",2,Al40 O60,3.9081,-3.2138572088,3.064256343905152
mp-1245023,Al2O3,"[Element Al, Element O]",2,Al40 O60,3.4326,-3.1979182156,3.071239187792245
mp-1245044,MoO3,"[Element Mo, Element O]",2,Mo25 O75,1.6532,-1.769759533349999,3.037703631551136
mp-1245034,ZnS,"[Element S, Element Zn]",2,Zn50 S50,1.2473,-0.539814619363392,3.265913848420675
mp-1245035,ZnS,"[Element S, Element Zn]",2,Zn50 S50,1.2791000000000001,-0.525697826363392,3.342041642172807
mp-1245037,Al2O3,"[Element Al, Element O]",2,Al40 O60,3.5907,-3.2347358604,3.026561510242313
mp-1245039,MgO,"[Element Mg, Element O]",2,Mg40 O40,1.9229,-2.78396454775,2.9362748446515363
mp-1245036,Al2O3,"[Element Al, Element O]",2,Al40 O60,3.417700000000001,-3.195430974099999,3.009584821820165
mp-1245031,Ti3O5,"[Element O, Element Ti]",2,Ti39 O65,0.018399999999999,-3.169454276394231,3.613824616799446
mp-1245030,GaN,"[Element Ga, Element N]",2,Ga50 N50,0.059199999999999,0.036658393124998,4.968815489834743
mp-1245033,GaN,"[Element Ga, Element N]",2,Ga50 N50,0.002199999999999,0.032366115924999,4.519558283186467
mp-1245040,V2O5,"[Element O, Element V]",2,V30 O75,0.705199999999999,-1.764532924238096,2.46424646065279
mp-1245043,Al2O3,"[Element Al, Element O]",2,Al40 O60,3.235299999999999,-3.2047291178,3.005509480605721
mp-1245055,Al2O3,"[Element Al, Element O]",2,Al40 O60,3.9786,-3.2096260451,3.218628309521265
mp-1245057,B2O3,"[Element B, Element O]",2,B40 O60,4.231,-2.651250845466667,1.6580457517333231
mp-1245048,SbN,"[Element N, Element Sb]",2,Sb50 N50,0.167599999999999,0.206898334899999,2.797998029278323
mp-1245049,V2O5,"[Element O, Element V]",2,V30 O75,0.7883,-1.784641931476191,2.404227013225731
mp-1245045,MgO,"[Element Mg, Element O]",2,Mg40 O40,2.8658,-2.7226156340000003,2.783927725155665
mp-1245050,ZnS,"[Element S, Element Zn]",2,Zn50 S50,0.8749,-0.477818905563392,3.4851246261333593
mp-1245056,Al2O3,"[Element Al, Element O]",2,Al40 O60,3.8619,-3.259874261799999,3.159566373683375
mp-1245051,Ti3O5,"[Element O, Element Ti]",2,Ti39 O65,0.0,-3.187153476778847,3.7259658597335132
mp-1245047,VO2,"[Element O, Element V]",2,V34 O68,0.5321,-1.905343560686275,3.480896640778031
mp-1245052,Al2O3,"[Element Al, Element O]",2,Al40 O60,3.727499999999999,-3.234769900599999,2.927777848230498
mp-1245054,ZnS,"[Element S, Element Zn]",2,Zn50 S50,0.9214,-0.48650828286339204,3.318305171842643
mp-1245046,GaN,"[Element Ga, Element N]",2,Ga50 N50,0.036399999999999,0.034414682624999006,4.388335853073488
mp-1245058,V2O5,"[Element O, Element V]",2,V30 O75,0.7725000000000001,-1.7761729519523821,2.370115977969179
mp-1245069,GaN,"[Element Ga, Element N]",2,Ga50 N50,0.075299999999999,0.010410069624999001,4.143879606342291
mp-1245061,V2O5,"[Element O, Element V]",2,V30 O75,0.6666000000000001,-1.76009075757143,2.478697744516442
mp-1245074,GaAs,"[Element As, Element Ga]",2,Ga50 As50,0.0,-0.03375742205,5.043054045032608
mp-1245059,VO2,"[Element O, Element V]",2,V34 O68,0.679299999999999,-2.264944019705882,3.429951642627723
mp-1245075,GaN,"[Element Ga, Element N]",2,Ga50 N50,0.0,0.064045082324998,4.841335976112652
mp-1245060,BeO,"[Element Be, Element O]",2,Be50 O50,4.2425,-2.7759217962,2.283228028698272
mp-1245062,ZnS,"[Element S, Element Zn]",2,Zn50 S50,1.2026,-0.504933200963391,3.411736314281427
mp-1245068,ZnS,"[Element S, Element Zn]",2,Zn50 S50,0.8571000000000001,-0.488498657863392,3.507317748357403
mp-1245070,ZnS,"[Element S, Element Zn]",2,Zn50 S50,1.3621,-0.557810008363392,3.323627900364432
mp-1245063,Al2O3,"[Element Al, Element O]",2,Al40 O60,3.859700000000001,-3.2225968457,3.144218537753311
mp-1245064,Cr2O3,"[Element Cr, Element O]",2,Cr32 O48,0.768899999999999,-2.004921174749999,4.249568342111131
mp-1245065,Al2O3,"[Element Al, Element O]",2,Al40 O60,3.1609,-3.209142319599999,3.071282522974715
mp-1245066,Ti2O,"[Element O, Element Ti]",2,Ti68 O34,0.0,-1.712330145555555,4.5929926067904265
mp-1245081,Al2O3,"[Element Al, Element O]",2,Al40 O60,3.4702,-3.225427740799999,2.999695448139517
mp-1245079,BeO,"[Element Be, Element O]",2,Be50 O50,4.321099999999999,-2.7923029498,2.415146135974719
mp-1245076,SnO,"[Element O, Element Sn]",2,Sn40 O40,0.534099999999999,-1.4399671095,4.96542939954619
mp-1245080,Al2O3,"[Element Al, Element O]",2,Al40 O60,3.6482,-3.249555512899999,2.999520500408929
mp-1245084,Fe2O3,"[Element Fe, Element O]",2,Fe32 O48,0.12109999999999901,-1.1549741216249991,3.898581659245356
mp-1245086,Ti3O5,"[Element O, Element Ti]",2,Ti39 O65,0.018299999999999,-3.185935510625,3.7821199325276993
mp-1245092,Li2O,"[Element Li, Element O]",2,Li68 O34,2.461,-1.888375888202614,1.6171570363660321
mp-1245082,ZnS,"[Element S, Element Zn]",2,Zn50 S50,0.8792000000000001,-0.48935116446339105,3.360750598166495
mp-1245088,GaSb,"[Element Ga, Element Sb]",2,Ga50 Sb50,0.0,0.058004757500002,5.792817312899026
mp-1245089,CoO,"[Element Co, Element O]",2,Co40 O40,0.2662,-0.9030274552499991,4.8684444263011795