material_id,formula_pretty,elements,nelements,composition,band_gap,formation_energy_per_atom,density
mp-639734,SiO2,"[Element O, Element Si]",2,Si16 O32,5.449199999999999,-3.2516248575,1.7745634207968002
mp-570578,ZrIn3,"[Element In, Element Zr]",2,Zr1 In3,0.0,-0.32967619875000004,8.066422082166923
mp-571438,Be12V,"[Element Be, Element V]",2,Be12 V1,0.0,-0.10248673076923001,2.444798580369198
mp-571505,Rb2In3,"[Element In, Element Rb]",2,Rb4 In6,0.0,-0.12451336599999802,4.492104121828606
mp-634101,HCl,"[Element Cl, Element H]",2,H1 Cl1,2.584699999999999,-0.486253115624999,1.29069306176013
mp-600085,SiO2,"[Element O, Element Si]",2,Si32 O64,5.6023,-3.249033795,1.480526288896616
mp-634859,CaO2,"[Element Ca, Element O]",2,Ca1 O2,2.7345,-2.206560153333333,3.312892458777454
mp-7188,Al2Os,"[Element Al, Element Os]",2,Al2 Os1,0.28989999999999905,-0.670291663333335,9.81098820335959
mp-639892,GdMn12,"[Element Gd, Element Mn]",2,Gd1 Mn12,0.0,0.021436218832893,8.477948662637063
mp-571030,TlPd3,"[Element Pd, Element Tl]",2,Tl1 Pd3,0.0,-0.23151072499999603,13.105035114179122
mp-582799,EuAl4,"[Element Al, Element Eu]",2,Eu1 Al4,0.0,-0.318779513000001,4.102148125969824
mp-639511,SiO2,"[Element O, Element Si]",2,Si16 O32,5.7277000000000005,-3.25173815625,1.642220498733643
mp-684709,K3B17,"[Element B, Element K]",2,K6 B34,0.0,0.03861802131875,2.199485442598098
mp-571622,Be12Pt,"[Element Be, Element Pt]",2,Be12 Pt1,0.0,-0.094288496153846,4.587850994706799
mp-685151,TiO,"[Element O, Element Ti]",2,Ti6 O6,0.0,-2.725883769166666,4.56078467913637
mp-742,Ti2Cu,"[Element Cu, Element Ti]",2,Ti2 Cu1,0.0,-0.11303320444444301,5.792678466692911
mp-865558,AcTe3,"[Element Ac, Element Te]",2,Ac1 Te3,0.0,-1.018373454375002,7.79355066595012
mp-8093,Ba2Cd,"[Element Ba, Element Cd]",2,Ba2 Cd1,0.0,-0.22541339999999802,4.520926151567472
mp-862798,Pt3W,"[Element Pt, Element W]",2,Pt3 W1,0.0,-0.250430090000001,20.940433258711842
mp-862901,PmF3,"[Element F, Element Pm]",2,Pm1 F3,4.774199999999999,-4.2860255518749995,7.471085496996354
mp-861975,PaO3,"[Element O, Element Pa]",2,Pa1 O3,0.0,-3.081037021250002,11.181658408326806
mp-756395,V3O7,"[Element O, Element V]",2,V9 O21,0.0,-2.322588114499999,3.780876744575081
mp-861601,PuPd3,"[Element Pd, Element Pu]",2,Pu1 Pd3,0.0,0.047788405312504,13.144515360731594
mp-862658,LiCu3,"[Element Cu, Element Li]",2,Li1 Cu3,0.0,-0.011274624166665002,7.085672707099158
mp-863709,Ir3Rh,"[Element Ir, Element Rh]",2,Ir3 Rh1,0.0,-0.025206192500000002,19.933656130360056
mp-865342,Zn3Rh,"[Element Rh, Element Zn]",2,Zn3 Rh1,0.0,-0.352518126249999,9.186436445445365
mp-8094,Ba2Hg,"[Element Ba, Element Hg]",2,Ba2 Hg1,0.0,-0.38199362749999805,5.7473944188979615
mp-759,La2Sb,"[Element La, Element Sb]",2,La4 Sb2,0.0,-1.079209076666667,6.6958904393761305
mp-864742,Na3Sn,"[Element Na, Element Sn]",2,Na3 Sn1,0.0,-0.18876372000000002,2.833663934425362
mp-849078,Ni2S,"[Element Ni, Element S]",2,Ni2 S1,0.0,-0.09901549249999801,7.190907232749256
mp-8371,LuC2,"[Element C, Element Lu]",2,Lu1 C2,0.0,-0.187417912222223,8.579135167337402
mp-861952,PuBi3,"[Element Bi, Element Pu]",2,Pu1 Bi3,0.0,0.12633036187500502,12.374278824661744
mp-865425,ZnPd3,"[Element Pd, Element Zn]",2,Zn1 Pd3,0.0,-0.335484594999997,10.938038137012441
mp-865168,Be3Ni,"[Element Be, Element Ni]",2,Be3 Ni1,0.0,-0.28368570124999903,4.243303365787677
mp-862716,LiAg3,"[Element Ag, Element Li]",2,Li1 Ag3,0.0,-0.128797530416665,8.287157330778992
mp-862848,Pa3Al,"[Element Al, Element Pa]",2,Pa3 Al1,0.0,-0.13792461249999302,13.131459184676148
mp-864758,Na3In,"[Element In, Element Na]",2,Na3 In1,0.0,-0.091508852499998,2.6273043955977142
mp-865194,TmF3,"[Element F, Element Tm]",2,Tm1 F3,5.3798,-4.181989037499999,9.440488653054599
mp-865239,UF3,"[Element F, Element U]",2,U1 F3,0.0,-3.849683333333335,10.113452058454156
mp-865362,Zn3Ir,"[Element Ir, Element Zn]",2,Zn3 Ir1,0.0,-0.265185383750001,11.823891432667555
mp-865355,Zn3Pt,"[Element Pt, Element Zn]",2,Zn3 Pt1,0.0,-0.399549332499998,11.632654585549512
mp-865357,Zn3Pd,"[Element Pd, Element Zn]",2,Zn3 Pd1,0.0,-0.364765307499999,9.02782855630473
mp-861653,ThH3,"[Element H, Element Th]",2,Th1 H3,0.0,-0.49152697906249904,9.537929825811675
mp-862714,Be3Ir,"[Element Be, Element Ir]",2,Be3 Ir1,0.0,-0.461441378749999,9.430342897819388
mp-865900,Ti3Tl,"[Element Ti, Element Tl]",2,Ti3 Tl1,0.0,-0.033874629999999004,7.950479818000861
mp-867780,Al3Cr,"[Element Al, Element Cr]",2,Al3 Cr1,0.0,-0.15663263999999802,3.80386617646166
mp-971941,Zn3Ni,"[Element Ni, Element Zn]",2,Zn3 Ni1,0.0,-0.16911967499999903,8.365757074761854
mp-867347,Al3Tc,"[Element Al, Element Tc]",2,Al3 Tc1,0.0,-0.35496799250000005,5.147889414826838
mp-865985,CdPd3,"[Element Cd, Element Pd]",2,Cd1 Pd3,0.0,-0.259304325,11.214352032531394
mp-865562,Be3Ru,"[Element Be, Element Ru]",2,Be3 Ru1,0.0,-0.334430163749999,5.6645934488037195
mp-971948,Zn3Co,"[Element Co, Element Zn]",2,Zn3 Co1,0.0,-0.032314776249999004,8.294774901672646
mp-971779,ZnRh3,"[Element Rh, Element Zn]",2,Zn1 Rh3,0.0,-0.197140483750001,11.379372626226402
mp-971831,Tm3Th,"[Element Th, Element Tm]",2,Tm3 Th1,0.0,0.041352812499994,9.938031609758445
mp-971833,Tm3V,"[Element Tm, Element V]",2,Tm3 V1,0.0,0.29774049499999905,8.84409904952976
mp-971928,Zn3Ge,"[Element Ge, Element Zn]",2,Zn3 Ge1,0.0,0.18702794124999902,7.1922339681931
mp-971960,Zn3Os,"[Element Os, Element Zn]",2,Zn3 Os1,0.0,0.037268560000004,11.335476927614133
mp-971804,ZnNi3,"[Element Ni, Element Zn]",2,Zn1 Ni3,0.0,-0.116058669999999,9.078880563251134
mp-971950,Zn3Sn,"[Element Sn, Element Zn]",2,Zn3 Sn1,0.0,0.12423259374999901,6.973675770197538
mp-869,TaAl3,"[Element Al, Element Ta]",2,Ta1 Al3,0.0,-0.37362651433333105,6.95826382842547
mp-865610,LuH3,"[Element H, Element Lu]",2,Lu1 H3,0.022199999999999002,-0.6227801823958341,9.476437806945185
mp-865856,PaBi3,"[Element Bi, Element Pa]",2,Pa1 Bi3,0.0,-0.108717213749997,12.260567327380322
mp-971934,Zn3In,"[Element In, Element Zn]",2,Zn3 In1,0.0,0.105887797499999,7.083913836960168
mp-865939,LiMg2,"[Element Li, Element Mg]",2,Li1 Mg2,0.0,-0.055750262222222007,1.49661688061598
mp-873,VPd3,"[Element Pd, Element V]",2,V1 Pd3,0.0,-0.257477312499997,10.58046146848067
mp-971906,TmBi3,"[Element Bi, Element Tm]",2,Tm1 Bi3,0.0,-0.37281708625000204,11.002614568307106
mp-971775,ZnPb3,"[Element Pb, Element Zn]",2,Zn1 Pb3,0.0,0.12077277000000201,10.016280080463895
mp-971835,Tl3H,"[Element H, Element Tl]",2,Tl3 H1,0.0,0.397486208750002,9.46226495013234
mp-971859,Zn3B,"[Element B, Element Zn]",2,Zn3 B1,0.0,0.616645512708332,6.70831639834518
mp-8937,CrSi2,"[Element Cr, Element Si]",2,Cr1 Si2,0.0,-0.25700194666666604,5.153911779125176
mp-971767,ZnHg3,"[Element Hg, Element Zn]",2,Zn1 Hg3,0.0,0.11493791874999401,11.39315383633264
mp-971966,Zn3Sb,"[Element Sb, Element Zn]",2,Zn3 Sb1,0.0,0.24025868124999902,7.196537261923068
mp-971718,ZnBi3,"[Element Bi, Element Zn]",2,Zn1 Bi3,0.0,0.17758092249999802,9.89812477416886
mp-971832,ZnIn3,"[Element In, Element Zn]",2,Zn1 In3,0.0,0.09154063250000201,6.884273786016664
mp-972084,TbMn12,"[Element Mn, Element Tb]",2,Tb1 Mn12,0.0,0.00865639960212,8.411274944126646
mp-972479,Sm3Sc,"[Element Sc, Element Sm]",2,Sm3 Sc1,0.0,0.058291266249998,6.565919693777942
mp-972529,SmP3,"[Element P, Element Sm]",2,Sm1 P3,0.0,-0.44843093285714203,5.38236293143411
mp-972077,TcGe3,"[Element Ge, Element Tc]",2,Tc1 Ge3,0.0,0.269510168125002,8.206779417700151
mp-972658,SmBi3,"[Element Bi, Element Sm]",2,Sm1 Bi3,0.0,-0.43996813375000704,10.543876270409312
mp-972722,SmAs3,"[Element As, Element Sm]",2,Sm1 As3,0.0,-0.6634998681250011,7.194332923805925
mp-972300,Sr3Lu,"[Element Lu, Element Sr]",2,Sr3 Lu1,0.0,0.24019645249999702,3.9076324244186793
mp-972326,TcPt3,"[Element Pt, Element Tc]",2,Tc1 Pt3,0.0,-0.127022225000004,19.015441334295335
mp-973022,ScRu3,"[Element Ru, Element Sc]",2,Sc1 Ru3,0.0,-0.05016767875000001,9.457204298797947
mp-972088,Zr3Zn,"[Element Zn, Element Zr]",2,Zr3 Zn1,0.0,-0.122088837500001,6.843042928755833
mp-972285,Sr3Li,"[Element Li, Element Sr]",2,Sr3 Li1,0.0,0.09470025166666701,2.343892916688241
mp-972472,SnAs3,"[Element As, Element Sn]",2,Sn1 As3,0.0,0.359640200520836,6.4150194195341115
mp-972069,Ti3Ga,"[Element Ga, Element Ti]",2,Ti3 Ga1,0.0,-0.308988396875,5.451212151991287
mp-972411,Tb3Yb,"[Element Tb, Element Yb]",2,Tb3 Yb1,0.0,0.036302121250002005,8.580289997633143
mp-972202,TcAs3,"[Element As, Element Tc]",2,Tc1 As3,0.0,0.35974533500000305,8.074259344267146
mp-972170,TbY3,"[Element Tb, Element Y]",2,Tb1 Y3,0.0,0.077506692499998,5.366635553878732
mp-972874,SeBr3,"[Element Br, Element Se]",2,Se1 Br3,0.0,-0.113517586835937,3.875493744839585
mp-972353,U3Pa,"[Element Pa, Element U]",2,U3 Pa1,0.0,0.21689532999999903,18.347855647709608
mp-972828,Cu3Si,"[Element Cu, Element Si]",2,Cu3 Si1,0.0,-0.038787216250000006,7.840960151122702
mp-972517,SmY3,"[Element Sm, Element Y]",2,Sm1 Y3,0.0,0.07355721999999701,5.193399702116278
mp-972324,Tc3As,"[Element As, Element Tc]",2,Tc3 As1,0.0,0.14238106895833202,10.476138618023343
mp-972471,Sm3Ho,"[Element Ho, Element Sm]",2,Sm3 Ho1,0.0,0.028807826249998003,7.724187820376497
mp-972908,La3Dy,"[Element Dy, Element La]",2,La3 Dy1,0.0,0.030047082500001,6.705757706134851
mp-972405,U3Cl,"[Element Cl, Element U]",2,U3 Cl1,0.0,0.08938206354165601,16.076912091511947
mp-972912,La3Er,"[Element Er, Element La]",2,La3 Er1,0.0,0.034690657916666,6.833787963798324
mp-972607,SmHo3,"[Element Ho, Element Sm]",2,Sm1 Ho3,0.0,0.042881898750003006,8.43967502262584
mp-972848,SiC3,"[Element C, Element Si]",2,Si1 C3,0.0,2.13563533406579,2.30332787518596
mp-972486,Sm3Ti,"[Element Sm, Element Ti]",2,Sm3 Ti1,0.0,0.23940868041666602,7.114564781892296
mp-972461,Sm3Zr,"[Element Sm, Element Zr]",2,Sm3 Zr1,0.0,0.13853885874999902,7.429854390599408
mp-973071,Hg3As,"[Element As, Element Hg]",2,Hg3 As1,0.0,0.274875472499999,12.02692253031418
mp-973175,ScBi3,"[Element Bi, Element Sc]",2,Sc1 Bi3,0.0,-0.233084712500001,9.618447245002619
mp-973736,GeAs3,"[Element As, Element Ge]",2,Ge1 As3,0.0,0.394584902812502,6.104619076438533
mp-973896,Ni3I,"[Element I, Element Ni]",2,Ni3 I1,0.0,0.43183897875000005,9.21212069492646
mp-973992,Ho3Pb,"[Element Ho, Element Pb]",2,Ho3 Pb1,0.0,-0.24099132374999502,10.08522179835247
mp-973881,PmDy3,"[Element Dy, Element Pm]",2,Pm1 Dy3,0.0,0.038303421875003005,8.136784270778488
mp-973092,ScCu3,"[Element Cu, Element Sc]",2,Sc1 Cu3,0.0,-0.145604581249999,7.032402655094583
mp-973498,In3Au,"[Element Au, Element In]",2,In3 Au1,0.0,-0.07600398000000201,9.233528319590102
mp-973174,NaAg3,"[Element Ag, Element Na]",2,Na1 Ag3,0.0,0.013203913333335001,7.442921382900342
mp-973508,KRb3,"[Element K, Element Rb]",2,K1 Rb3,0.0,0.028298722562500003,1.35444622063687
mp-973748,LiIn3,"[Element In, Element Li]",2,Li1 In3,0.0,-0.196137001666667,6.341089116674805
mp-973792,Pa3Tl,"[Element Pa, Element Tl]",2,Pa3 Tl1,0.0,0.175039569166656,14.712764176617998
mp-973064,LaH3,"[Element H, Element La]",2,La1 H3,0.25310000000000005,-0.6821327903124991,5.472273724607668
mp-973974,K3Mo,"[Element K, Element Mo]",2,K3 Mo1,0.0,1.16856156275,1.812136712161181
mp-973181,Mn3Zn,"[Element Mn, Element Zn]",2,Mn3 Zn1,0.0,0.176764734755746,8.124713190515605
mp-973741,LiHo3,"[Element Ho, Element Li]",2,Li1 Ho3,0.0,0.198104051666668,7.200240648935541
mp-973250,KLa3,"[Element K, Element La]",2,K1 La3,0.0,0.42827477550000004,4.657234117830166
mp-973308,MgIn3,"[Element In, Element Mg]",2,Mg1 In3,0.0,-0.010315541249998,6.281555960859499
mp-973339,Lu3Th,"[Element Lu, Element Th]",2,Lu3 Th1,0.0,0.030868655000006004,10.375415783783014
mp-1627,Mo2S3,"[Element Mo, Element S]",2,Mo4 S6,0.0,-0.773987577687501,5.6932190845009245
mp-1206559,LaO2,"[Element La, Element O]",2,La2 O4,0.0,-3.089907305,5.34384094666455
mp-1208933,Sm2Sb5,"[Element Sb, Element Sm]",2,Sm8 Sb20,0.0,-0.8058060364285731,7.167230941473173
mp-12700,NbPt3,"[Element Nb, Element Pt]",2,Nb4 Pt12,0.0,-0.707492294375001,17.856902554085874
mp-1209498,RbP11,"[Element P, Element Rb]",2,Rb4 P44,0.6557000000000001,-0.122514223630952,2.365134901431855
mp-1214175,Bi7I2,"[Element Bi, Element I]",2,Bi14 I4,0.0,-0.184993699999997,8.190680044647321
mp-1239169,MoS3,"[Element Mo, Element S]",2,Mo2 S6,0.7267,-0.4216751609375,3.048133057110382
mp-15622,HfSe3,"[Element Hf, Element Se]",2,Hf2 Se6,0.31709999999999905,-1.169647978046875,7.088325819426084
mp-1446045,VO2,"[Element O, Element V]",2,V8 O16,1.0737,-2.343168320416668,3.325204356312204
mp-1206338,ErO2,"[Element Er, Element O]",2,Er2 O4,0.0,-3.199738946666665,7.56920631880858
mp-12406,US3,"[Element S, Element U]",2,U2 S6,0.0,-1.422330559609374,5.543023676664944
mp-1399,AlAu,"[Element Al, Element Au]",2,Al4 Au4,0.0,-0.42298121250000104,10.805918253835348
mp-1545417,CeI3,"[Element Ce, Element I]",2,Ce2 I6,0.7358999999999991,-1.718154452499998,5.331939213390109
mp-2766475,Mn3Ir,"[Element Ir, Element Mn]",2,Mn6 Ir2,0.0,-0.34603986211207105,10.87481924264225
mp-27684,Tl4O3,"[Element O, Element Tl]",2,Tl8 O6,1.099199999999999,-0.9325564547619061,10.140302815189877
mp-27561,Rb9O2,"[Element O, Element Rb]",2,Rb18 O4,0.0,-0.6578798943181801,1.9493406841007692
mp-2025704,Ag2S,"[Element Ag, Element S]",2,Ag4 S2,1.0891,-0.10503542927083401,6.046580348456434
mp-2050200,VI3,"[Element I, Element V]",2,V2 I6,0.41140000000000004,-0.5750313731250001,3.9052406718423702
mp-1683,ZrSe3,"[Element Se, Element Zr]",2,Zr2 Se6,0.39790000000000003,-1.236771233046873,5.464371229421456
mp-22854,Pr2I5,"[Element I, Element Pr]",2,Pr4 I10,0.1283,-1.678733276190476,5.21105029400432
mp-2050029,EuCl3,"[Element Cl, Element Eu]",2,Eu2 Cl6,0.025799999999999,-2.125389389375001,4.200809782257146
mp-1707,BaN6,"[Element Ba, Element N]",2,Ba2 N12,3.8146,-0.182876322857144,3.193740948467135
mp-2309,Tm2S3,"[Element S, Element Tm]",2,Tm8 S12,1.1832,-2.358875747187499,6.525198565069753
mp-2330,Nb2Se3,"[Element Nb, Element Se]",2,Nb4 Se6,0.0,-0.974626388437499,6.744904402979224
mp-2475638,LiBe,"[Element Be, Element Li]",2,Li2 Be2,0.0,0.162175150833332,1.158476023387466
mp-1864,LaP5,"[Element La, Element P]",2,La4 P20,0.11390000000000002,-0.678575252480158,3.709440970476049
mp-2089,ZrTe3,"[Element Te, Element Zr]",2,Zr2 Te6,0.0,-0.8232634687500031,6.334494537292908
mp-2196,BaSb2,"[Element Ba, Element Sb]",2,Ba6 Sb12,0.0,-0.8492804044444461,5.776131170174947
mp-2050241,SrF3,"[Element F, Element Sr]",2,Sr2 F6,0.0,-3.07600926625,4.350923092049843
mp-23169,Pr2Br5,"[Element Br, Element Pr]",2,Pr4 Br10,0.281699999999999,-2.226460709047617,5.023344831115257
mp-28062,Sb2F7,"[Element F, Element Sb]",2,Sb8 F28,3.8056,-2.679369363611093,4.6332569565269
mp-2234,Er2S3,"[Element Er, Element S]",2,Er12 S18,1.4691,-2.3661894406874993,6.204950661786847
mp-502,As4S5,"[Element As, Element S]",2,As8 S10,1.996999999999999,-0.15450363989583202,3.112527531590688
mp-30282,La2I5,"[Element I, Element La]",2,La4 I10,0.1718,-1.777881522857142,5.113501436592766
mp-28149,Bi9I2,"[Element Bi, Element I]",2,Bi18 I4,0.0,-0.15641075409091001,8.411047661712182
mp-29652,TaSe3,"[Element Se, Element Ta]",2,Ta4 Se12,0.0,-0.74295523113021,7.620513766047706
mp-30768,Li7Sn3,"[Element Li, Element Sn]",2,Li14 Sn6,0.0,-0.39368295233333306,3.727777088666902
mp-29661,Si5Pt6,"[Element Pt, Element Si]",2,Si10 Pt12,0.0,-0.7208357750000011,12.916407574477837
mp-510568,V2O5,"[Element O, Element V]",2,V4 O10,1.7022,-2.278425560000001,3.745523265513974
mp-30420,SrAu,"[Element Au, Element Sr]",2,Sr20 Au20,0.0,-0.8102438095000021,7.996736337408686
mp-368,P2O3,"[Element O, Element P]",2,P8 O12,3.8409,-1.959637244857141,1.89434617763906
mp-2911895,BaF3,"[Element Ba, Element F]",2,Ba2 F6,1.4012,-3.07875201,4.790699833783093
mp-30471,CaCu,"[Element Ca, Element Cu]",2,Ca10 Cu10,0.0,-0.10677027750000101,3.641315263354545
mp-3216821,YbO3,"[Element O, Element Yb]",2,Yb2 O6,0.34739999999999904,-2.363322621562499,8.385378565974962
mp-525,NbSe3,"[Element Nb, Element Se]",2,Nb6 Se18,0.0,-0.763964880130207,6.02807560382763
mp-28571,La2Br5,"[Element Br, Element La]",2,La4 Br10,0.0,-2.330986979285713,4.861475902459413
mp-31139,TbNi,"[Element Ni, Element Tb]",2,Tb12 Ni12,0.0,-0.43534600583333205,9.133206611422944
mp-30527,TaS3,"[Element S, Element Ta]",2,Ta6 S18,0.0,-1.173654325375001,5.881606865285172
mp-31103,Ni3Te2,"[Element Ni, Element Te]",2,Ni6 Te4,0.0,-0.148926796,8.282902781844557
mp-562561,MoO3,"[Element Mo, Element O]",2,Mo2 O6,1.6843,-1.8967097490625,4.676730591616162
mp-569776,TaNi3,"[Element Ni, Element Ta]",2,Ta4 Ni12,0.0,-0.32708908495833405,12.339145193230443
mp-568927,AgI,"[Element Ag, Element I]",2,Ag2 I2,0.9588999999999991,-0.362143248333332,6.689685269394208
mp-556859,HgO,"[Element Hg, Element O]",2,Hg8 O8,1.214,-0.6345490181250031,9.877796448579687
mp-555853,In6S7,"[Element In, Element S]",2,In12 S14,0.3186,-0.685706356514423,4.9780986607042355
mp-556225,Ag2S,"[Element Ag, Element S]",2,Ag4 S2,1.0853,-0.11835359593749901,6.697040973874489
mp-570687,AgCl,"[Element Ag, Element Cl]",2,Ag2 Cl2,0.8720000000000001,-0.5571698837499991,5.433843026115748
mp-530033,B8O,"[Element B, Element O]",2,B48 O6,2.4459,-0.6041677368518521,2.542099350741202
mp-567638,TaPt3,"[Element Pt, Element Ta]",2,Ta12 Pt36,0.0,-0.7071258774583331,20.338973071902032
mp-559360,SiO2,"[Element O, Element Si]",2,Si24 O48,5.7962,-3.255733744166666,1.717090878852131
mp-541289,Y2S3,"[Element S, Element Y]",2,Y12 S18,1.5992000000000002,-2.382647370687501,3.8050672458027313
mp-568792,Si5Rh4,"[Element Rh, Element Si]",2,Si10 Rh8,0.0,-0.760410692222219,7.194177194564093
mp-570301,AgBr,"[Element Ag, Element Br]",2,Ag2 Br2,0.6990000000000001,-0.587576648333332,6.245163623562608
mp-557894,SiO2,"[Element O, Element Si]",2,Si32 O64,5.9287,-3.2513156152083322,1.645014779845564
mp-566,CeP5,"[Element Ce, Element P]",2,Ce2 P10,0.0,-0.637632621646822,3.811109332082355
mp-641945,Tb2Sb5,"[Element Sb, Element Tb]",2,Tb8 Sb20,0.0,-0.769582221785713,7.586374628304885
mp-615820,Pu2Pt,"[Element Pt, Element Pu]",2,Pu8 Pt4,0.0,-0.059599662499991005,15.567028996094018
mp-680443,K4Pb9,"[Element K, Element Pb]",2,K16 Pb36,0.36920000000000003,-0.23147775511893,6.431704970454468
mp-571279,ZrI2,"[Element I, Element Zr]",2,Zr4 I8,0.31610000000000005,-1.145334125833335,5.644233526932671
mp-611062,EuSb2,"[Element Eu, Element Sb]",2,Eu2 Sb4,0.0,-0.8430464066666701,7.328593709454566
mp-608439,Pb2O3,"[Element O, Element Pb]",2,Pb4 O6,1.071799999999999,-1.266177407999999,9.250343170894926
mp-624668,BaSb2,"[Element Ba, Element Sb]",2,Ba2 Sb4,0.0,-0.850043534444442,5.76274165937521
mp-680266,Sm5Br11,"[Element Br, Element Sm]",2,Sm20 Br44,0.0,-1.9304787862500001,5.66323822851156
mp-680463,Rb4Pb9,"[Element Pb, Element Rb]",2,Rb16 Pb36,0.391399999999999,-0.15772634538461303,6.840206042120071
mp-7260,P4S5,"[Element P, Element S]",2,P8 S10,2.5427,-0.173069331218584,2.096048257672485
mp-572822,TiO2,"[Element O, Element Ti]",2,Ti4 O8,1.6966,-2.975623215277778,1.9316945416519231
mp-644802,C17F5,"[Element C, Element F]",2,C136 F40,1.056699999999999,-0.240966766392044,2.035385332582556
mp-669497,Dy5Cl11,"[Element Cl, Element Dy]",2,Dy20 Cl44,0.0,-2.11735685,5.255797962340831
mp-570987,Ce3Al,"[Element Al, Element Ce]",2,Ce12 Al4,0.0,-0.224513107499998,7.209541531657666
mp-714921,V6O13,"[Element O, Element V]",2,V12 O26,0.0,-2.393345812894737,3.704669799274019
mp-573815,ReI3,"[Element I, Element Re]",2,Re6 I18,0.9469999999999991,-0.348767611458335,5.865044683547671
mp-672389,MnTe,"[Element Mn, Element Te]",2,Mn4 Te4,0.0,-0.5179042929741401,5.911142944079177
mp-684679,Sb6O13,"[Element O, Element Sb]",2,Sb12 O26,1.5408,-1.781462497368421,5.700608753874141
mp-680742,GdP5,"[Element Gd, Element P]",2,Gd2 P10,0.0,-0.621731799980156,4.17820836933524
mp-727311,SrF3,"[Element F, Element Sr]",2,Sr2 F6,0.0,-3.10738709125,4.260927034068102
mp-849581,V9O22,"[Element O, Element V]",2,V18 O44,0.0,-2.27245270483871,3.331486660623212
mp-8357,UTe3,"[Element Te, Element U]",2,U2 Te6,0.0,-0.8114933574999981,7.380136998824758
mp-776456,Ti2O3,"[Element O, Element Ti]",2,Ti12 O18,0.0,-3.255844817000002,4.775431857524981