material_id,formula_pretty,elements,nelements,composition,band_gap,formation_energy_per_atom,density
mp-1014261,IrO2,"[Element Ir, Element O]",2,Ir2 O4,0.0,-0.997662419999999,9.882715940690662
mp-1016,PuGe2,"[Element Ge, Element Pu]",2,Pu2 Ge4,0.0,-0.40528275375000505,9.879721499760494
mp-1066771,ZrSi,"[Element Si, Element Zr]",2,Zr2 Si2,0.0,-0.098827234999998,5.24758069081229
mp-1077267,ErSi2,"[Element Er, Element Si]",2,Er2 Si4,0.0,-0.5212470411111121,6.621837086960793
mp-1080352,CeSe2,"[Element Ce, Element Se]",2,Ce16 Se32,0.9956,-1.393807853020831,1.925860040398857
mp-1080634,CeSe2,"[Element Ce, Element Se]",2,Ce16 Se32,0.9593,-1.392300571354165,1.957296307656946
mp-1072167,EuN2,"[Element Eu, Element N]",2,Eu2 N4,0.0,0.6936864020833271,4.8779831150788535
mp-1101174,WN2,"[Element N, Element W]",2,W2 N4,0.0,-0.26416251104167005,9.202540462176728
mp-1016059,CrN2,"[Element Cr, Element N]",2,Cr16 N32,0.0,-0.096224641666665,1.569859093106881
mp-1077147,HoSi2,"[Element Ho, Element Si]",2,Ho2 Si4,0.0,-0.555625026499998,6.399244823007486
mp-1072982,GdGe2,"[Element Gd, Element Ge]",2,Gd2 Ge4,0.0,-0.558959765,7.625017243924379
mp-1201457,Sm3Zn22,"[Element Sm, Element Zn]",2,Sm6 Zn44,0.0,-0.278351623599984,7.840832328022724
mp-1104579,Ce2H5,"[Element Ce, Element H]",2,Ce4 H10,0.0,-0.6372129626785701,5.578891031251958
mp-1104116,La2H5,"[Element H, Element La]",2,La4 H10,0.0,-0.7233855326785731,5.31707062514531
mp-1210739,Mg2Al3,"[Element Al, Element Mg]",2,Mg8 Al12,0.0,0.10601426150000001,2.156422628093317
mp-1208324,Ti2Al3,"[Element Al, Element Ti]",2,Ti8 Al12,0.0,-0.13822970816666602,3.354763557369547
mp-1209274,RbRe,"[Element Rb, Element Re]",2,Rb4 Re4,0.0,2.453928504999998,9.977378409020105
mp-1208561,ThBr2,"[Element Br, Element Th]",2,Th4 Br8,0.5992999999999991,-0.615354223333332,1.035506460921328
mp-1102891,EuBi2,"[Element Bi, Element Eu]",2,Eu4 Bi8,0.0,-0.7042053258333281,10.081694270923593
mp-1102067,PuSn2,"[Element Pu, Element Sn]",2,Pu4 Sn8,0.0,-0.49823853791666706,10.178319732817746
mp-1104060,Nd2H5,"[Element H, Element Nd]",2,Nd4 H10,0.0,-0.692367744821429,6.024931277239347
mp-1200584,La3Zn22,"[Element La, Element Zn]",2,La6 Zn44,0.0,-0.309130701199999,7.37883783178304
mp-1208294,UCl2,"[Element Cl, Element U]",2,U4 Cl8,0.4727,-0.7164425413888911,0.9947128133728411
mp-1191536,EuZn11,"[Element Eu, Element Zn]",2,Eu2 Zn22,0.0,-0.197254519583332,7.695152725634085
mp-11440,HfGa2,"[Element Ga, Element Hf]",2,Hf4 Ga8,0.0,-0.5036237225000041,10.275652158255639
mp-11722,PrGe2,"[Element Ge, Element Pr]",2,Pr2 Ge4,0.0,-0.67962634722222,6.780551434104893
mp-1103021,PrPb2,"[Element Pb, Element Pr]",2,Pr4 Pb8,0.0,-0.604620975555557,10.107877220931988
mp-1179275,Si4O9,"[Element O, Element Si]",2,Si16 O36,0.0,-2.7726198951923093,2.006336512224447
mp-1210741,Pu2Sn3,"[Element Pu, Element Sn]",2,Pu8 Sn12,0.0,-0.28520117930000805,9.862821587767467
mp-1179092,TiSi2,"[Element Si, Element Ti]",2,Ti2 Si4,0.0,0.19913673111110902,3.475677660236777
mp-1200700,Pr3Zn22,"[Element Pr, Element Zn]",2,Pr6 Zn44,0.0,-0.28296975560000404,7.559208011635461
mp-1209992,NbP2,"[Element Nb, Element P]",2,Nb4 P8,0.0,0.36372272440476106,2.629102015848407
mp-1211218,Sr4Zn11,"[Element Sr, Element Zn]",2,Sr8 Zn22,0.0,0.03207019333333,4.351604576981701
mp-1179447,SiO2,"[Element O, Element Si]",2,Si8 O16,5.6304,-3.249457960833334,1.771117532682573
mp-1207687,Zr2In3,"[Element In, Element Zr]",2,Zr8 In12,0.024300000000000002,-0.099212585500006,7.157209328347312
mp-1102374,PuPb2,"[Element Pb, Element Pu]",2,Pu4 Pb8,0.0,-0.009445992083327,12.628181569316027
mp-1199143,Nd3Zn22,"[Element Nd, Element Zn]",2,Nd6 Zn44,0.0,-0.2841790253,7.6532656651165265
mp-1208314,ThCl2,"[Element Cl, Element Th]",2,Th4 Cl8,0.0,-1.856218560000002,6.372202510335963
mp-1221594,MnO4,"[Element Mn, Element O]",2,Mn2 O8,0.0,-0.5733175615862071,2.411737308514323
mp-1228838,As2Se,"[Element As, Element Se]",2,As4 Se2,0.0,0.055262700173611005,5.7470409429292495
mp-12769,YSi2,"[Element Si, Element Y]",2,Y2 Si4,0.0,-0.560288173333335,4.182135034866017
mp-1217320,TeAs2,"[Element As, Element Te]",2,Te2 As4,0.0,0.21401028833333402,6.193487255682003
mp-1228819,As2S,"[Element As, Element S]",2,As4 S2,0.0,0.045991953437498005,4.94130512456899
mp-1213922,ClO,"[Element Cl, Element O]",2,Cl8 O8,1.6924000000000001,-0.048369916875,0.370704065607158
mp-12597,TaP,"[Element P, Element Ta]",2,Ta2 P2,0.0,-0.310229565154763,10.970526559479781
mp-1220020,P2Se,"[Element P, Element Se]",2,P4 Se2,0.0,0.300280382375992,4.319143603630093
mp-1727,SrSi2,"[Element Si, Element Sr]",2,Sr2 Si4,0.0,-0.39498135500000103,3.498584632807533
mp-1478,Cu4O3,"[Element Cu, Element O]",2,Cu8 O6,0.0,-0.8074406257142841,6.051088195427846
mp-18759,Mn3O4,"[Element Mn, Element O]",2,Mn6 O8,0.8134999999999991,-2.050409240541872,4.886374081713801
mp-1220021,P2S,"[Element P, Element S]",2,P4 S2,0.0,0.23829603158234203,3.203833247535804
mp-1219477,Sb2Te,"[Element Sb, Element Te]",2,Sb4 Te2,0.0,-0.12652732388888802,6.385188216681729
mp-1213180,Nd4Zn11,"[Element Nd, Element Zn]",2,Nd8 Zn22,0.0,0.126233454,6.3964857618701565
mp-18026,SrZn11,"[Element Sr, Element Zn]",2,Sr2 Zn22,0.0,-0.195248423333333,7.011865771056137
mp-1278937,CoO2,"[Element Co, Element O]",2,Co4 O8,0.9448000000000001,-1.015104255,4.756387359148226
mp-13444,LiSn,"[Element Li, Element Sn]",2,Li6 Sn6,0.0,-0.325685672499999,4.974479891926454
mp-12770,DySi2,"[Element Dy, Element Si]",2,Dy2 Si4,0.0,-0.564634099999999,6.361787095307063
mp-1898,CeSi2,"[Element Ce, Element Si]",2,Ce2 Si4,0.0,-0.6778101900000001,5.3358583831754345
mp-12750,SmGe2,"[Element Ge, Element Sm]",2,Sm2 Ge4,0.0,-0.5827179600000001,7.161992951788902
mp-32891,Y2S3,"[Element S, Element Y]",2,Y16 S24,1.901899999999999,-2.346931513937499,4.179987681547378
mp-32798,La2Se3,"[Element La, Element Se]",2,La16 Se24,1.58,-2.342295032187499,6.045119341034584
mp-32736,Er2Se3,"[Element Er, Element Se]",2,Er16 Se24,1.6676000000000002,-2.098241555020834,7.858953731605672
mp-32850,Tm2Se3,"[Element Se, Element Tm]",2,Tm16 Se24,1.696399999999999,-2.085519594187494,7.970957965737156
mp-32645,Sm2S3,"[Element S, Element Sm]",2,Sm16 S24,1.807599999999999,-2.35113461025,5.755830554535628
mp-32906,La2S3,"[Element La, Element S]",2,La16 S24,1.9531,-2.488600482937499,4.924719118536538
mp-32672,Pu2Se3,"[Element Pu, Element Se]",2,Pu16 Se24,0.0035,-1.903298259687494,9.659152291347597
mp-32688,Nd2Se3,"[Element Nd, Element Se]",2,Nd16 Se24,1.4781,-2.191013233687499,6.517396416166739
mp-32787,Ho2S3,"[Element Ho, Element S]",2,Ho16 S24,1.9342000000000001,-2.341740573104167,6.652220732392991
mp-32800,Ac2S3,"[Element Ac, Element S]",2,Ac16 S24,2.2962,-2.4930635934375003,6.535149338291522
mp-33239,Pu2S3,"[Element Pu, Element S]",2,Pu16 S24,0.0,-1.838213817999994,8.971020422143269
mp-32826,Dy2S3,"[Element Dy, Element S]",2,Dy16 S24,1.9090999999999991,-2.3473839929375,6.502474015847245
mp-32933,Tm2S3,"[Element S, Element Tm]",2,Tm16 S24,2.0032,-2.317882245687502,6.925506756355403
mp-673656,Y2Se3,"[Element Se, Element Y]",2,Y16 Se24,1.5955,-2.1394990024375,5.5403481271275
mp-685041,Ho2Se3,"[Element Ho, Element Se]",2,Ho16 Se24,1.658099999999999,-2.120628121437499,7.711628402808133
mp-684712,Gd2S3,"[Element Gd, Element S]",2,Gd16 S24,1.1643,-2.312357614937497,6.112869413449767
mp-752,Mn15Si26,"[Element Mn, Element Si]",2,Mn30 Si52,0.0,-0.27986826932914605,5.248503923023208
mp-684922,Np2Se3,"[Element Np, Element Se]",2,Np16 Se24,0.0,-1.45855285665625,9.69817508375506
mp-684787,U2Te3,"[Element Te, Element U]",2,U16 Te24,0.016299999999999003,-1.146792447749998,9.716764930599691
mp-673650,Lu2Se3,"[Element Lu, Element Se]",2,Lu16 Se24,1.792899999999999,-2.038129103604165,8.246989353727807
mp-684708,Er2S3,"[Element Er, Element S]",2,Er16 S24,1.971899999999999,-2.32521540827083,6.809744679760566
mp-569841,Ba19Li44,"[Element Ba, Element Li]",2,Ba38 Li88,0.0,0.006189224735449,2.284283355039889
mp-673644,Tb2S3,"[Element S, Element Tb]",2,Tb16 S24,1.8720999999999992,-2.3603784541875,6.32004661611876
mp-685003,Tb2Se3,"[Element Se, Element Tb]",2,Tb16 Se24,1.580899999999999,-2.120702778822918,7.443611178360862
mp-7582,GeS2,"[Element Ge, Element S]",2,Ge2 S4,2.5974999999999993,-0.6457689883333321,3.134754644309891
mp-684844,Pu2Te3,"[Element Pu, Element Te]",2,Pu16 Te24,0.0,-1.126383505999993,9.580601723547101
mp-684911,Sm2Te3,"[Element Sm, Element Te]",2,Sm16 Te24,0.9629999999999991,-1.663962815999997,7.131043848344011
mp-7583,SiS2,"[Element S, Element Si]",2,Si2 S4,3.2415,-0.730262855208332,2.28489591718836
mp-1014287,C3N,"[Element C, Element N]",2,C6 N2,0.0,2.821367385624998,2.362210272576416
mp-1001605,PrBi,"[Element Bi, Element Pr]",2,Pr1 Bi1,0.0,-1.007987903333337,9.126196062741478
mp-1009223,NaAs,"[Element As, Element Na]",2,Na1 As1,0.0,-0.36690617937499803,3.942302961443223
mp-1018140,MgNi,"[Element Mg, Element Ni]",2,Mg1 Ni1,0.0,-0.136087397499999,5.047594076587626
mp-1008802,ReC2,"[Element C, Element Re]",2,Re1 C2,0.0,0.8846674229166631,12.550840595415478
mp-1009134,MnFe,"[Element Fe, Element Mn]",2,Mn1 Fe1,0.0,0.09255887603448,8.733741964154095
mp-1054,ErTl,"[Element Er, Element Tl]",2,Er2 Tl2,0.0,-0.30306956166666904,11.824382526877589
mp-1014332,C3N,"[Element C, Element N]",2,C24 N8,0.0,3.192666354374998,1.9815822545647022
mp-1001836,MnGa,"[Element Ga, Element Mn]",2,Mn1 Ga1,0.0,-0.27264122224137904,7.667674940011587
mp-1080070,Ti3Pd5,"[Element Pd, Element Ti]",2,Ti3 Pd5,0.0,-0.30994389374999504,8.710548936135572
mp-1009583,PrAs,"[Element As, Element Pr]",2,Pr1 As1,0.0,-1.334790877083332,7.091585992005272
mp-1080191,Pd3N2,"[Element N, Element Pd]",2,Pd3 N2,0.0,0.5341851740000031,8.971713044183142
mp-1009230,NdAs,"[Element As, Element Nd]",2,Nd1 As1,0.0,-1.347886059999993,7.363339608923688
mp-1039124,MgCd,"[Element Cd, Element Mg]",2,Mg1 Cd1,0.0,-0.078959370833331,5.388422913560682
mp-1056985,TiPd,"[Element Pd, Element Ti]",2,Ti1 Pd1,0.0,-0.527454493333333,8.365194665265063
mp-1058887,TlC,"[Element C, Element Tl]",2,Tl1 C1,0.0,2.375719474583331,9.558270371981367
mp-1066029,RbBi,"[Element Bi, Element Rb]",2,Rb1 Bi1,0.0,-0.055794608750001,5.772023762262501
mp-1058490,EuIn,"[Element Eu, Element In]",2,Eu1 In1,0.0,-0.43719428083333506,7.153827553500686
mp-1017541,ZrIr,"[Element Ir, Element Zr]",2,Zr1 Ir1,0.0,-0.936473047500008,13.064275235468594
mp-1018890,PaP2,"[Element P, Element Pa]",2,Pa1 P2,0.0,-0.8539248403174561,7.611751908573048
mp-1057320,NiHg,"[Element Hg, Element Ni]",2,Ni1 Hg1,0.0,0.219228017499997,13.735784312124743
mp-1059552,SmBi,"[Element Bi, Element Sm]",2,Sm1 Bi1,0.0,-0.954543457500001,9.801494666687974
mp-1009814,SmAs,"[Element As, Element Sm]",2,Sm1 As1,0.0,-1.351021916249998,7.867111791913439
mp-1039141,MgAl,"[Element Al, Element Mg]",2,Mg1 Al1,0.0,0.0143388125,2.265505608554158
mp-1065811,SnO,"[Element O, Element Sn]",2,Sn1 O1,0.0,-1.1852626249999991,6.83730437709922
mp-10048,GaAs,"[Element As, Element Ga]",2,Ga1 As1,0.0,-0.022778661250001,5.963476295256568
mp-10177,LaSb,"[Element La, Element Sb]",2,La1 Sb1,0.0,-1.313823542500003,7.102797010572519
mp-1064484,Na3Cl,"[Element Cl, Element Na]",2,Na3 Cl1,0.0,-0.869805835625,1.503683993480462
mp-1018715,Hf5Pb,"[Element Hf, Element Pb]",2,Hf5 Pb1,0.0,0.020506999999999,13.32150774231904
mp-1018810,Na2Cl,"[Element Cl, Element Na]",2,Na4 Cl2,0.0,-1.214223178017241,1.698312303387834
mp-1022724,CaC4,"[Element C, Element Ca]",2,Ca1 C4,0.0,0.243489165999997,2.936609289926182
mp-1019238,Pd2N,"[Element N, Element Pd]",2,Pd4 N2,0.0,0.43778858333333104,6.704130809598748
mp-1073705,MgSi,"[Element Mg, Element Si]",2,Mg1 Si1,0.0,0.16605011249999901,2.506388844669133
mp-1078576,Cu3N,"[Element Cu, Element N]",2,Cu6 N2,0.0,0.5292564149999991,6.727266797237775
mp-1079286,IrC4,"[Element C, Element Ir]",2,Ir1 C4,0.0,1.5050508040000041,7.66288247804574
mp-1105489,HfCo7,"[Element Co, Element Hf]",2,Hf1 Co7,0.0,0.077081483437495,10.218234865738639
mp-1094862,MgZn,"[Element Mg, Element Zn]",2,Mg1 Zn1,0.0,-0.052997437499999,4.301303488610034
mp-1094883,MgGa,"[Element Ga, Element Mg]",2,Mg1 Ga1,0.0,-0.11636074624999901,4.262967390689257
mp-1096987,FeCo9,"[Element Co, Element Fe]",2,Fe1 Co9,0.0,0.6267293099999981,7.468727271321804
mp-1098156,LaMg3,"[Element La, Element Mg]",2,La1 Mg3,0.0,-0.019394005000000002,3.135179820919626
mp-1094801,MgSn,"[Element Mg, Element Sn]",2,Mg1 Sn1,0.0,-0.104141934999999,5.058616620212225
mp-1100166,YMg3,"[Element Mg, Element Y]",2,Y1 Mg3,0.0,-0.024711438749998003,2.666620696697326
mp-1147758,CuCl2,"[Element Cl, Element Cu]",2,Cu1 Cl2,0.0,-0.472898831666665,2.530237625537596
mp-1094673,LiMg,"[Element Li, Element Mg]",2,Li1 Mg1,0.0,-0.051512453333331,1.279761773169139
mp-1097030,Li2O2,"[Element Li, Element O]",2,Li1 O1,0.0,-1.381966649166666,2.503468323457067
mp-1094668,MgSb,"[Element Mg, Element Sb]",2,Mg1 Sb1,0.0,-0.21494385749999903,4.935869902193267
mp-1147768,CuO,"[Element Cu, Element O]",2,Cu3 O3,0.0,-0.6652429325,5.887308104500786
mp-11359,Ga2Cu,"[Element Cu, Element Ga]",2,Ga2 Cu1,0.0,-0.080186346666666,7.41154853982418
mp-1147700,Cu2N,"[Element Cu, Element N]",2,Cu2 N1,0.0,0.35121780166666605,7.2859434433285415
mp-1096892,C3N,"[Element C, Element N]",2,C24 N8,0.0,2.636251998437498,1.663348135734024
mp-1094964,HfMg,"[Element Hf, Element Mg]",2,Hf1 Mg1,0.0,0.20849436750000103,7.772757247071735
mp-11470,Hg2Pt,"[Element Hg, Element Pt]",2,Hg2 Pt1,0.0,-0.080404438333336,14.643269157912897
mp-1179681,RbS,"[Element Rb, Element S]",2,Rb1 S1,0.0,-0.724069387499999,3.3510710889422253
mp-1194,CdPt,"[Element Cd, Element Pt]",2,Cd2 Pt2,0.0,-0.287571474999998,14.895346683553619
mp-11841,CeAg,"[Element Ag, Element Ce]",2,Ce1 Ag1,0.0,-0.06319438083333001,8.652614121612148
mp-1185858,MgCr,"[Element Cr, Element Mg]",2,Mg1 Cr1,0.0,0.6041429325000001,3.38300405203097
mp-1094974,MgZr,"[Element Mg, Element Zr]",2,Mg1 Zr1,0.0,0.091624357499999,4.317187309263327
mp-1180861,K2Pd,"[Element K, Element Pd]",2,K2 Pd1,0.0,0.131936357999999,2.60428592333666
mp-11291,CeCd,"[Element Cd, Element Ce]",2,Ce1 Cd1,0.0,-0.17549402124999902,7.346945253324982
mp-11798,Fe3Pt,"[Element Fe, Element Pt]",2,Fe3 Pt1,0.0,-0.07329822499999801,11.443443665498082
mp-1206225,Tb2Te3,"[Element Tb, Element Te]",2,Tb2 Te3,0.15780000000000002,1.161530631999994,0.33768238853603805
mp-1147530,CuBr2,"[Element Br, Element Cu]",2,Cu1 Br2,0.0,-0.46649785666666604,3.7743575251044943
mp-1179197,SrO10,"[Element O, Element Sr]",2,Sr1 O10,0.0,-0.500647610909091,2.438200739129018
mp-1147672,CuF2,"[Element Cu, Element F]",2,Cu1 F2,0.0,-1.706543093333332,3.329242727411324
mp-1187887,ThIn,"[Element In, Element Th]",2,Th1 In1,0.0,-0.385865365,10.079789746408528
mp-1120769,RuPt,"[Element Pt, Element Ru]",2,Ru1 Pt1,0.0,0.07581536,16.654979478482073
mp-1094998,CaMg,"[Element Ca, Element Mg]",2,Ca1 Mg1,0.0,-0.0639846775,1.706894615475358
mp-1179682,RbS,"[Element Rb, Element S]",2,Rb1 S1,0.0,-0.6658185224999991,3.001823648700659
mp-1206389,ZrCd,"[Element Cd, Element Zr]",2,Zr2 Cd2,0.0,0.518012184999996,6.5849479001020335
mp-1180621,KS,"[Element K, Element S]",2,K1 S1,0.0,-0.6849413574479161,2.321978577305279
mp-11870,Hg2Rh,"[Element Hg, Element Rh]",2,Hg2 Rh1,0.0,-0.016613125000001002,12.993974366540236
mp-1147667,CuI2,"[Element Cu, Element I]",2,Cu1 I2,0.0,-0.160968143333333,4.288140074608916
mp-1187597,TmMg3,"[Element Mg, Element Tm]",2,Tm1 Mg3,0.0,-0.029745521250001003,4.112211698782613
mp-1203286,Cu3N,"[Element Cu, Element N]",2,Cu24 N8,0.0,0.5409906518749991,6.615688382983894
mp-1206688,Sn2O,"[Element O, Element Sn]",2,Sn2 O1,0.0,-0.683528508333332,4.833649262028976
mp-1206652,HfAu,"[Element Au, Element Hf]",2,Hf2 Au2,0.0,0.461947415000004,13.671950778973207
mp-1206659,HfIr,"[Element Hf, Element Ir]",2,Hf2 Ir2,0.0,-0.9101728724999981,17.5546151566152
mp-1206747,LuTl,"[Element Lu, Element Tl]",2,Lu1 Tl1,0.0,-0.251686475,12.366886881928194
mp-1208426,TmGa6,"[Element Ga, Element Tm]",2,Tm2 Ga12,0.032499999999999,1.5827205896428551,0.529964901505929
mp-1207258,Dy2Te3,"[Element Dy, Element Te]",2,Dy2 Te3,0.026699999999999002,1.185429689999995,0.35485407830645704
mp-1206519,Hf2Sb3,"[Element Hf, Element Sb]",2,Hf2 Sb3,0.191699999999999,2.878276152749998,0.44339153035601303
mp-1207343,Pa2P3,"[Element P, Element Pa]",2,Pa2 P3,0.1406,2.992783128714291,0.286038431988733
mp-1206750,CrPt,"[Element Cr, Element Pt]",2,Cr1 Pt1,0.0,-0.275839335,13.762133347223228
mp-1215488,Zn5Pd3,"[Element Pd, Element Zn]",2,Zn5 Pd3,0.0,-0.42506786499999905,9.568321478752399
mp-1207320,Th2Bi3,"[Element Bi, Element Th]",2,Th2 Bi3,0.202799999999999,2.768058916,0.40899385014820305
mp-1213556,ErGa6,"[Element Er, Element Ga]",2,Er2 Ga12,0.027700000000000002,1.574793445595239,0.536633044499057
mp-1213,NdSb,"[Element Nd, Element Sb]",2,Nd1 Sb1,0.0,-1.178405778750001,7.579490439842097
mp-1213016,CuI2,"[Element Cu, Element I]",2,Cu1 I2,0.0,-0.15565562000000002,4.034207627984498
mp-1215509,ZnPd2,"[Element Pd, Element Zn]",2,Zn2 Pd4,0.0,-0.424092697499998,10.74998793496907
mp-1215845,Yb2Ru,"[Element Ru, Element Yb]",2,Yb2 Ru1,0.0,-0.38907330833333204,9.97214881259986
mp-1210439,SmGa6,"[Element Ga, Element Sm]",2,Sm2 Ga12,0.11230000000000001,1.332639024285713,0.45217972741523504
mp-1206672,HfCd,"[Element Cd, Element Hf]",2,Hf2 Cd2,0.0,0.623008507499996,9.588844308692293
mp-1206755,CeTl,"[Element Ce, Element Tl]",2,Ce1 Tl1,0.0,-0.43258772,9.693634632297195
mp-1208665,SrO4,"[Element O, Element Sr]",2,Sr1 O4,0.300399999999999,-0.43949050599999906,0.243413502537891
mp-1212550,Sc3Sb2,"[Element Sb, Element Sc]",2,Sc3 Sb2,0.129199999999999,2.40184171775,0.090816137852175
mp-1206966,Tm2Te3,"[Element Te, Element Tm]",2,Tm2 Te3,0.0,1.224634420499995,0.373602800716105
mp-1215236,ZrTi,"[Element Ti, Element Zr]",2,Zr1 Ti1,0.0,0.08833534833333001,5.681577963007207
mp-1215257,ZrRh,"[Element Rh, Element Zr]",2,Zr2 Rh2,0.0,-0.8336217849999981,9.127886461842978
mp-1215997,YIn,"[Element In, Element Y]",2,Y1 In1,0.0,-0.601433850000002,6.426274683298173
mp-1216590,Tm3Mg,"[Element Mg, Element Tm]",2,Tm3 Mg1,0.0,-0.011885498750004001,7.733739124087197
mp-1215274,ZrAu,"[Element Au, Element Zr]",2,Zr1 Au1,0.0,-0.532984107499999,12.189547523951633
mp-1207006,Th2Sb3,"[Element Sb, Element Th]",2,Th2 Sb3,0.164299999999999,2.553751852500011,0.33513738518428005
mp-1207089,LuIn,"[Element In, Element Lu]",2,Lu1 In1,0.0,-0.5111947033333301,9.760295990879282
mp-1206986,Lu2Te3,"[Element Lu, Element Te]",2,Lu2 Te3,0.15430000000000002,1.191386417333333,0.37734497269204603
mp-1207280,Ho2Te3,"[Element Ho, Element Te]",2,Ho2 Te3,0.09200000000000001,1.141563579500001,0.35942577952915
mp-1208550,TaPd,"[Element Pd, Element Ta]",2,Ta2 Pd2,0.0,0.6824144188333391,11.488162839055924
mp-1207100,ScIn,"[Element In, Element Sc]",2,Sc1 In1,0.0,-0.5507911224999981,5.934453238829552
mp-1207306,Y2Te3,"[Element Te, Element Y]",2,Y2 Te3,0.363899999999999,1.147638304,0.27860691362902
mp-1207317,U2P3,"[Element P, Element U]",2,U2 P3,0.0,2.967728824214288,0.44239445802057803
mp-1207355,U2As3,"[Element As, Element U]",2,U2 As3,0.0,2.794653407000004,0.467142917700875
mp-1207380,ZrIn,"[Element In, Element Zr]",2,Zr1 In1,0.0,-0.43915304249999904,7.787641883192495
mp-1216314,VNi3,"[Element Ni, Element V]",2,V1 Ni3,0.0,-0.069334715,8.331487511497707
mp-1209830,PBr2,"[Element Br, Element P]",2,P1 Br2,1.7542,0.9056350851190481,0.213574824314569
mp-1216611,TlIn3,"[Element In, Element Tl]",2,Tl1 In3,0.0,0.008411200000001,8.323504509642484
mp-1208450,Th2As3,"[Element As, Element Th]",2,Th2 As3,0.121799999999999,2.379346473500004,0.448734108146003
mp-1208655,SrO10,"[Element O, Element Sr]",2,Sr1 O10,0.0,0.09180046545454501,2.73670647465993
mp-1208775,TbGa6,"[Element Ga, Element Tb]",2,Tb2 Ga12,0.0,1.541539459642856,0.49954561938150904
mp-1215473,ZnFe,"[Element Fe, Element Zn]",2,Zn1 Fe1,0.0,-0.00865922,8.053823080443978
mp-1208168,UP4,"[Element P, Element U]",2,U1 P4,0.0,1.960077195142866,0.513052576797959
mp-1217367,Th2B15,"[Element B, Element Th]",2,Th4 B30,0.0,-0.42283435161764604,5.95932896870206