material_id,formula_pretty,elements,nelements,composition,band_gap,formation_energy_per_atom,density
mp-743270,Mo15Se19,"[Element Mo, Element Se]",2,Mo30 Se38,0.0,-0.09548114300551601,6.454916504002371
mp-697025,HI,"[Element H, Element I]",2,H8 I8,4.0739,-0.175657457499999,3.424554181564919
mp-770274,NiP4,"[Element Ni, Element P]",2,Ni4 P16,0.0,-0.164049944952378,3.883674532730065
mp-755137,BiO2,"[Element Bi, Element O]",2,Bi2 O4,0.0,-1.357832416666665,7.588751679216892
mp-757410,VF4,"[Element F, Element V]",2,V2 F8,1.444899999999999,-2.979236998999999,2.844629545827381
mp-756253,Cr3O4,"[Element Cr, Element O]",2,Cr6 O8,1.077,-2.1709183342857132,4.674664397321444
mp-752912,VF5,"[Element F, Element V]",2,V2 F10,3.1601,-2.759329463333333,2.7969048801646643
mp-753169,Mn2F5,"[Element F, Element Mn]",2,Mn4 F10,0.0,-2.777717305123153,4.099174508952956
mp-759867,VF4,"[Element F, Element V]",2,V2 F8,2.310499999999999,-3.021615639,2.8238966430217243
mp-715514,V2O3,"[Element O, Element V]",2,V4 O6,0.0,-2.515111666,4.635027441819093
mp-7317,Sm5Co2,"[Element Co, Element Sm]",2,Sm10 Co4,0.0,-0.09679022357142901,7.939319391344588
mp-753707,Bi3O5,"[Element Bi, Element O]",2,Bi6 O10,0.0,-1.532432675,8.668162443760822
mp-754893,U4O7,"[Element O, Element U]",2,U8 O14,0.0,-3.52169336272727,10.9761128527285
mp-753435,Mn2F7,"[Element F, Element Mn]",2,Mn4 F14,0.2505,-2.5050770045402313,3.184502606318204
mp-755453,MnP4,"[Element Mn, Element P]",2,Mn4 P16,0.0,-0.31918647530049105,3.949466461150622
mp-7302,CrP4,"[Element Cr, Element P]",2,Cr2 P8,0.0,-0.264165119380952,3.939760617656209
mp-704645,CuO,"[Element Cu, Element O]",2,Cu2 O2,0.0,-0.9425302874999991,5.938478413978436
mp-7547,BaSe2,"[Element Ba, Element Se]",2,Ba2 Se4,0.6166,-1.7082743515625,4.80029195950115
mp-995217,H2C3,"[Element C, Element H]",2,H8 C12,1.969799999999999,0.014660348499999,1.368174783481111
mp-772550,CrO3,"[Element Cr, Element O]",2,Cr4 O12,2.3376,-1.497262841875001,2.582597942067121
mp-985608,Nd2O5,"[Element Nd, Element O]",2,Nd4 O10,2.8438,-2.680034604285715,6.190702301103933
mp-796240,V3O8,"[Element O, Element V]",2,V6 O16,0.0,-2.009986754090909,3.318003840435901
mp-8251,VP4,"[Element P, Element V]",2,V2 P8,0.0,-0.385611564380951,3.696641074678414
mp-862671,ThF4,"[Element F, Element Th]",2,Th6 F24,6.1261,-4.330500208666668,7.043613003454832
mp-1097803,Cr3N2,"[Element Cr, Element N]",2,Cr3 N2,0.0,0.243018559833335,4.569237202124259
mp-27276,Si12Ni31,"[Element Ni, Element Si]",2,Si12 Ni31,0.0,-0.46282649046511604,7.821115595846705
mp-765633,MnF3,"[Element F, Element Mn]",2,Mn6 F18,0.2629,-2.713573319482759,3.801293000448163
mp-14112,PdF3,"[Element F, Element Pd]",2,Pd3 F9,0.0,-1.3887831224999991,4.787774630635596
mp-1181398,FeF3,"[Element F, Element Fe]",2,Fe3 F9,3.0517,-2.598839757916667,3.393356353987503
mp-766789,MnF3,"[Element F, Element Mn]",2,Mn6 F18,0.8748999999999991,-2.733203464482759,3.728675778582858
mp-1103295,AlF3,"[Element Al, Element F]",2,Al3 F9,7.4257,-3.8628652050000003,2.902761552438926
mp-21208,RhF3,"[Element F, Element Rh]",2,Rh3 F9,0.5699000000000001,-1.6690050858333332,4.997458884188938
mp-1014509,Cr3N2,"[Element Cr, Element N]",2,Cr3 N2,0.0,0.5547043918333351,3.53129641930991
mp-860537,CoF3,"[Element Co, Element F]",2,Co3 F9,0.4727,-1.9012289995833331,3.753530557337943
mp-569049,Al5Mo,"[Element Al, Element Mo]",2,Al50 Mo10,0.0,-0.274173570333332,4.122339881345025
mp-985587,Al2O3,"[Element Al, Element O]",2,Al6 O9,4.8054000000000014,-3.216492775666667,1.6218074261807272
mp-1974948,Na2O,"[Element Na, Element O]",2,Na6 O3,1.6226,-1.352059538141762,2.7255985798114413
mp-20169,Ce2O3,"[Element Ce, Element O]",2,Ce2 O3,0.0,-2.9814122949999993,3.511848093397864
mp-1213805,CrI3,"[Element Cr, Element I]",2,Cr6 I18,1.159,-0.723041855833334,4.93908355446768
mp-569756,TiCl3,"[Element Cl, Element Ti]",2,Ti6 Cl18,0.0,-1.807060095208334,2.619697592262082
mp-28731,V6C5,"[Element C, Element V]",2,V18 C15,0.0,-0.6353447772727261,5.666738188465111
mp-570997,RuCl3,"[Element Cl, Element Ru]",2,Ru6 Cl18,0.0,-0.9761134279166661,3.262634512399371
mp-1104673,IrC4,"[Element C, Element Ir]",2,Ir3 C12,0.0,1.26954187,9.779434240598825
mp-489,Ge4Ir,"[Element Ge, Element Ir]",2,Ge12 Ir3,0.0,-0.136604680000001,9.159224789412457
mp-553432,TiO2,"[Element O, Element Ti]",2,Ti3 O6,3.421,-3.358393413055555,2.4238539243290482
mp-20893,GeO2,"[Element Ge, Element O]",2,Ge3 O6,0.9845,-0.5317821394444441,4.531571233692041
mp-634,HgS,"[Element Hg, Element S]",2,Hg3 S3,1.7077,-0.23582434666666602,8.97489224726409
mp-1071319,ZnTe,"[Element Te, Element Zn]",2,Zn3 Te3,0.2949,-0.532554113333332,5.994305328756802
mp-1100925,V7S8,"[Element S, Element V]",2,V21 S24,0.0,-1.173721176,4.79598108432097
mp-1104286,Ge4Rh,"[Element Ge, Element Rh]",2,Ge12 Rh3,0.0,-0.133963054000001,7.486573202027077
mp-1080265,CeSe2,"[Element Ce, Element Se]",2,Ce3 Se6,0.9642000000000001,-1.41740621267361,3.086223177979386
mp-556435,Fe7S8,"[Element Fe, Element S]",2,Fe21 S24,0.0,-0.6490579146666651,5.522181407054188
mp-306,B2O3,"[Element B, Element O]",2,B6 O9,6.3017,-2.798056310000001,2.561902772718296
mp-540702,Fe7Se8,"[Element Fe, Element Se]",2,Fe21 Se24,0.0,-0.38659653836111,6.958339301613919
mp-1180215,N2O,"[Element N, Element O]",2,N6 O3,0.9687000000000001,0.7861453638888881,1.079515177103214
mp-1209131,Sn9Pd13,"[Element Pd, Element Sn]",2,Sn27 Pd39,0.0,-0.5057941532954511,10.194821114018216
mp-1208852,Sn4Rh,"[Element Rh, Element Sn]",2,Sn12 Rh3,0.0,-0.267474396,8.201748448487166
mp-15951,BeF2,"[Element Be, Element F]",2,Be3 F6,8.319600000000001,-3.550678696111111,2.395296883503536
mp-1492,CdTe,"[Element Cd, Element Te]",2,Cd3 Te3,0.021500000000000002,-0.448117790000002,6.147822608776511
mp-358,HgTe,"[Element Hg, Element Te]",2,Hg3 Te3,0.480199999999999,-0.153098125416671,8.356867211915487
mp-7000,SiO2,"[Element O, Element Si]",2,Si3 O6,5.719,-3.27283134388889,2.634242418262655
mp-754629,WN2,"[Element N, Element W]",2,W3 N6,1.0029,-0.361949071597226,5.761176998260523
mp-733,GeO2,"[Element Ge, Element O]",2,Ge3 O6,3.250099999999999,-2.077072867222222,4.264932175835284
mp-7826,HgO,"[Element Hg, Element O]",2,Hg3 O3,1.3101,-0.632158511250007,10.790521650188568
mp-1201871,Li7Si3,"[Element Li, Element Si]",2,Li42 Si18,0.0,-0.2440456685,1.5116537072448102
mp-569890,CrCl3,"[Element Cl, Element Cr]",2,Cr6 Cl18,1.4598,-1.418770671874999,2.606800726446179
mp-1080296,CeSe2,"[Element Ce, Element Se]",2,Ce3 Se6,0.881899999999999,-1.377073360451388,2.400384460380532
mp-1077107,HgO,"[Element Hg, Element O]",2,Hg3 O3,1.271199999999999,-0.6331253987500031,9.970012724699668
mp-1018722,HgSe,"[Element Hg, Element Se]",2,Hg3 Se3,1.0432,-0.23692071328125003,8.307718381660244
mp-569030,BeCl2,"[Element Be, Element Cl]",2,Be9 Cl18,6.3751,-1.823556665370369,1.2595910411056521
mp-1195863,ZnN6,"[Element N, Element Zn]",2,Zn6 N36,3.829399999999999,0.36795341797619,2.54682383455357
mp-1015908,CrN2,"[Element Cr, Element N]",2,Cr3 N6,0.0,-0.051771780138887,5.6797675532920255
mp-1071269,HgTe,"[Element Hg, Element Te]",2,Hg3 Te3,0.27890000000000004,-0.153116478750002,8.34220097130915
mp-1080346,CeSe2,"[Element Ce, Element Se]",2,Ce3 Se6,0.7140000000000001,-1.904880838229165,5.9878088754968015
mp-223,GeO2,"[Element Ge, Element O]",2,Ge3 O6,3.2493,-2.076682903888889,4.286376745965896
mp-1237669,CeSe2,"[Element Ce, Element Se]",2,Ce3 Se6,0.7241000000000001,-1.9047806615624991,6.04409965883544
mp-640917,SiO2,"[Element O, Element Si]",2,Si3 O6,0.6553999999999991,-0.844746218888888,2.2756436881195
mp-6930,SiO2,"[Element O, Element Si]",2,Si3 O6,5.6695,-3.272205639444445,2.632257568520512
mp-9252,HgS,"[Element Hg, Element S]",2,Hg3 S3,1.6863000000000001,-0.37165940500000205,6.995159723906291
mp-1096914,CrN2,"[Element Cr, Element N]",2,Cr3 N6,0.0,-0.11699430791666501,2.554953705228646
mp-1038921,Mg5Bi,"[Element Bi, Element Mg]",2,Mg5 Bi1,0.0,0.009264504166666,3.744335168595545
mp-1094711,CeMg5,"[Element Ce, Element Mg]",2,Ce1 Mg5,0.0,0.09134183416666501,2.9009621963830323
mp-1038785,MgCd2,"[Element Cd, Element Mg]",2,Mg6 Cd12,0.0,-0.029015582777776,6.489259658107687
mp-1094218,La5Mg,"[Element La, Element Mg]",2,La5 Mg1,0.0,0.015858979999999002,5.698994205226045
mp-1094333,Sr2Mg,"[Element Mg, Element Sr]",2,Sr4 Mg2,0.0,0.09742468500000001,2.540211311252847
mp-1094560,Mg2Sb,"[Element Mg, Element Sb]",2,Mg4 Sb2,0.0,-0.120525846666666,3.885235185015339
mp-1184696,Ho5Mg,"[Element Ho, Element Mg]",2,Ho5 Mg1,0.0,0.034624925000006,7.918286661946508
mp-1185699,MgBi5,"[Element Bi, Element Mg]",2,Mg1 Bi5,0.0,0.08441200749999701,9.677432916895059
mp-1185811,Mg5Ge,"[Element Ge, Element Mg]",2,Mg5 Ge1,0.0,-0.054678534999999,2.5005207680597943
mp-1187967,Yb5Mg,"[Element Mg, Element Yb]",2,Yb5 Mg1,0.0,0.021350249999997,8.66310174431376
mp-1094378,Y2Mg,"[Element Mg, Element Y]",2,Y4 Mg2,0.0,0.077695895,3.781489185630739
mp-1187640,Tm5Mg,"[Element Mg, Element Tm]",2,Tm5 Mg1,0.0,0.030263324166663004,8.322845514855532
mp-1185845,MgAs,"[Element As, Element Mg]",2,Mg3 As3,0.0,-0.5350036350625,3.759643934585464
mp-1186745,Pr5Mg,"[Element Mg, Element Pr]",2,Pr5 Mg1,0.0,0.020323199444446,5.935956254635942
mp-1094273,Mg5Ti,"[Element Mg, Element Ti]",2,Mg5 Ti1,0.0,0.183797803611111,2.12868346688256
mp-1094605,LiMg2,"[Element Li, Element Mg]",2,Li2 Mg4,0.0,-0.022746248888889,1.434698532300171
mp-1094796,Mg5Cd,"[Element Cd, Element Mg]",2,Mg15 Cd3,0.0,0.0012646375,2.9745942020787153
mp-1185807,Mg5Ag,"[Element Ag, Element Mg]",2,Mg5 Ag1,0.0,-0.04383075611111,3.0812960743230082
mp-1186862,Tb5Mg,"[Element Mg, Element Tb]",2,Tb5 Mg1,0.0,0.022996996944445,7.415389103320666
mp-1094201,La2Mg,"[Element La, Element Mg]",2,La4 Mg2,0.0,0.015283904999998002,5.086566396808107
mp-1094229,MgSn5,"[Element Mg, Element Sn]",2,Mg1 Sn5,0.0,0.026764228333336002,6.581810639046401
mp-1094329,MgTi2,"[Element Mg, Element Ti]",2,Mg2 Ti4,0.0,0.23283748944444302,3.57668807871973
mp-1184181,Er5Mg,"[Element Er, Element Mg]",2,Er5 Mg1,0.0,0.023251749166668,8.16365342070551
mp-1038971,Ce5Mg,"[Element Ce, Element Mg]",2,Ce5 Mg1,0.0,0.08795860027777701,7.377604145331468
mp-1039048,Mg2Bi,"[Element Bi, Element Mg]",2,Mg4 Bi2,0.0,-0.010298875,5.4866532540836594
mp-1094242,Mg2Sn,"[Element Mg, Element Sn]",2,Mg4 Sn2,0.0,0.062938983333333,3.989661830884255
mp-1185828,Mg5Te,"[Element Mg, Element Te]",2,Mg5 Te1,0.0,-0.13286517861111002,2.9052091452146502
mp-1185860,MgCu5,"[Element Cu, Element Mg]",2,Mg1 Cu5,0.0,-0.013281262500001001,7.413634105100247
mp-1039631,Ce2Mg,"[Element Ce, Element Mg]",2,Ce4 Mg2,0.0,0.085800377222222,6.205783756799632
mp-1100712,Mg9Si5,"[Element Mg, Element Si]",2,Mg18 Si10,0.0,-0.057114997857143,2.174696357001833
mp-1185835,Mg5In,"[Element In, Element Mg]",2,Mg5 In1,0.0,-0.006579465277777001,2.9205778467900503
mp-1185839,MgAg5,"[Element Ag, Element Mg]",2,Mg1 Ag5,0.0,-0.09011195555555301,8.94603245260778
mp-1094907,Mg2Cd,"[Element Cd, Element Mg]",2,Mg4 Cd2,0.0,-0.028859858333331004,4.156123065690758
mp-1094295,SrMg5,"[Element Mg, Element Sr]",2,Sr1 Mg5,0.0,0.068720851875,2.078120290596324
mp-1039318,CaMg5,"[Element Ca, Element Mg]",2,Ca1 Mg5,0.0,0.017503788027211,1.721829497583709
mp-1094638,MgGa5,"[Element Ga, Element Mg]",2,Mg1 Ga5,0.0,-0.024002622083332002,5.695046714874256
mp-1180144,MnMo3,"[Element Mn, Element Mo]",2,Mn1 Mo3,0.0,1.448165358017242,6.084260671165477
mp-1185921,MgNi5,"[Element Mg, Element Ni]",2,Mg1 Ni5,0.0,-0.011145322499999001,7.575984270613196
mp-1185813,Mg5Au,"[Element Au, Element Mg]",2,Mg5 Au1,0.0,-0.178331147499999,4.283151667853975
mp-1039332,Ca2Mg,"[Element Ca, Element Mg]",2,Ca4 Mg2,0.0,0.0247444375,1.629970227231116
mp-1094421,Mg2Zn,"[Element Mg, Element Zn]",2,Mg4 Zn2,0.0,0.021581826666666002,3.129494472440432
mp-1094644,MgGa2,"[Element Ga, Element Mg]",2,Mg2 Ga4,0.0,-0.064449420000001,4.901095974459719
mp-1094657,Mg5Ga,"[Element Ga, Element Mg]",2,Mg5 Ga1,0.0,-0.008277472083332,2.518240061939012
mp-1185837,Mg5Sc,"[Element Mg, Element Sc]",2,Mg5 Sc1,0.0,0.048927303333333005,2.006675818931312
mp-1094377,Mg2Ti,"[Element Mg, Element Ti]",2,Mg4 Ti2,0.0,0.20713807055555503,2.569229636955265
mp-1094199,Mg5Sn,"[Element Mg, Element Sn]",2,Mg5 Sn1,0.0,-0.020839058333332,2.931991465596661
mp-1094194,MgZn5,"[Element Mg, Element Zn]",2,Mg1 Zn5,0.0,-0.0196991275,6.408445719661387
mp-1094425,Mg5Zn,"[Element Mg, Element Zn]",2,Mg5 Zn1,0.0,0.026873365833334002,2.50010075676459
mp-1094564,Mg5Sb,"[Element Mg, Element Sb]",2,Mg5 Sb1,0.0,-0.055495739166666,2.8997476474848263
mp-1183822,Dy5Mg,"[Element Dy, Element Mg]",2,Dy5 Mg1,0.0,0.030771991111117003,7.690995721380709
mp-1185695,MgAu5,"[Element Au, Element Mg]",2,Mg1 Au5,0.0,-0.24803230250000202,16.016851145495586
mp-1186293,Nd5Mg,"[Element Mg, Element Nd]",2,Nd5 Mg1,0.0,0.012875284583332001,6.240653116078693
mp-1094405,YMg5,"[Element Mg, Element Y]",2,Y1 Mg5,0.0,0.0482010525,2.328513145743207
mp-1094500,MgZn2,"[Element Mg, Element Zn]",2,Mg2 Zn4,0.0,0.010736765,4.924492692870656
mp-1185832,Mg5Pb,"[Element Mg, Element Pb]",2,Mg5 Pb1,0.0,0.010349070833332,3.894871106324857
mp-1185901,MgIn2,"[Element In, Element Mg]",2,Mg2 In4,0.0,-0.006587257777776001,5.765038098841155
mp-1094213,MgSn2,"[Element Mg, Element Sn]",2,Mg2 Sn4,0.0,-0.006005199999999,5.6323146687902
mp-1094360,Sr5Mg,"[Element Mg, Element Sr]",2,Sr5 Mg1,0.0,0.058765530833333,2.5814081327378
mp-1094625,Mg2Ga,"[Element Ga, Element Mg]",2,Mg4 Ga2,0.0,-0.005594270833332001,3.274310579849279
mp-1215393,Zr3Te2,"[Element Te, Element Zr]",2,Zr3 Te2,0.0,-0.458586430999997,6.67536279565575
mp-530048,Fe21O32,"[Element Fe, Element O]",2,Fe21 O32,0.0,-1.496282992075471,4.907492038690592
mp-1219486,RhO3,"[Element O, Element Rh]",2,Rh1 O3,0.0,-0.357132253749999,2.409624578404353
mp-18388,Ga7Te10,"[Element Ga, Element Te]",2,Ga14 Te20,0.5754,-0.41019046411764704,5.2929212540959725
mp-546546,SiO2,"[Element O, Element Si]",2,Si3 O6,5.5604,-3.231327901666665,2.089347715195751
mp-2351903,MgHg5,"[Element Hg, Element Mg]",2,Mg1 Hg5,0.0,-0.020116014583338,11.00604472083242
mp-2647026,Ti5Si,"[Element Si, Element Ti]",2,Ti10 Si2,0.0,-0.29974282981481304,4.535850752444161
mp-561418,Zr3O,"[Element O, Element Zr]",2,Zr12 O4,0.0,-1.545261101249999,6.690771496809814
mp-1217073,Ti3S2,"[Element S, Element Ti]",2,Ti3 S2,0.0,-1.141571572999999,4.178284977229527
mp-2056,Ni3Se2,"[Element Ni, Element Se]",2,Ni3 Se2,0.0,-0.286681585625001,7.453948229834487
mp-976976,MgPd5,"[Element Mg, Element Pd]",2,Mg1 Pd5,0.0,-0.33221363416666705,10.151833330433892
mp-976885,Li2Mg,"[Element Li, Element Mg]",2,Li4 Mg2,0.0,-0.027183797777777,1.027262680320164
mp-684989,W9C4,"[Element C, Element W]",2,W18 C8,0.0,-0.022551838461534003,16.719741489222645
mp-30418,SnAu5,"[Element Au, Element Sn]",2,Sn1 Au5,0.0,-0.016507648333335,16.54685935782607
mp-1215419,Zr3S2,"[Element S, Element Zr]",2,Zr3 S2,0.0,-1.258442184999999,5.510825105564115
mp-569103,Mg3Hg,"[Element Hg, Element Mg]",2,Mg18 Hg6,0.0,-0.10515078937500001,5.27953618841401
mp-17977,Fe12As5,"[Element As, Element Fe]",2,Fe12 As5,0.0,-0.066722126911763,8.138862924865885
mp-362,Ni3S2,"[Element Ni, Element S]",2,Ni3 S2,0.0,-0.5714508529999991,6.090749723979862
mp-978292,MgP,"[Element Mg, Element P]",2,Mg3 P3,0.0,-0.385819914821427,2.339637646742672
mp-1228656,Ba8Ge43,"[Element Ba, Element Ge]",2,Ba8 Ge43,0.0,-0.21408429715686203,5.481737841639956
mp-976969,MgPb5,"[Element Mg, Element Pb]",2,Mg1 Pb5,0.0,0.036780824166667,9.943330551175695
mp-979459,Sm5Mg,"[Element Mg, Element Sm]",2,Sm5 Mg1,0.0,0.016990683333333003,6.757090457544253
mp-14506,Al7Te10,"[Element Al, Element Te]",2,Al14 Te20,1.0799,-0.546650040882354,4.302586827207751
mp-973295,Mg5Hg,"[Element Hg, Element Mg]",2,Mg5 Hg1,0.0,-0.05389283125000201,4.156188986449611
mp-981382,MgHg5,"[Element Hg, Element Mg]",2,Mg1 Hg5,0.0,-0.019449449583343003,11.892508869634959
mp-559092,ScF3,"[Element F, Element Sc]",2,Sc1 F3,6.0767,-4.215910802500001,2.513414589946476
mp-669311,In7Te10,"[Element In, Element Te]",2,In14 Te20,0.8223,-0.458874379411765,5.354922804737431
mp-981935,Li5Mg,"[Element Li, Element Mg]",2,Li5 Mg1,0.0,-0.014463996388888001,0.8124053574308591
mp-1094327,SrMg,"[Element Mg, Element Sr]",2,Sr3 Mg3,0.0,0.137021930833331,2.309707600677022
mp-1039765,CeMg,"[Element Ce, Element Mg]",2,Ce3 Mg3,0.0,0.026177479166667003,5.6055080711666125
mp-1038862,CaMg,"[Element Ca, Element Mg]",2,Ca3 Mg3,0.0,0.07615784291666501,1.634879693861242
mp-1218093,TaCo3,"[Element Co, Element Ta]",2,Ta3 Co9,0.0,-0.133734560999999,12.157134933100185
mp-1044853,TiO2,"[Element O, Element Ti]",2,Ti12 O24,1.7851,-3.330270766666665,3.459893086806675
mp-1080030,BC7,"[Element B, Element C]",2,B1 C7,0.0,0.23005097950520703,3.319930244740524
mp-1041066,MnO2,"[Element Mn, Element O]",2,Mn12 O24,0.0,-1.653847512921455,4.029481814189597
mp-1018649,BC5,"[Element B, Element C]",2,B1 C5,0.0,0.25237573517361,3.261232902153413
mp-1021511,CdS,"[Element Cd, Element S]",2,Cd1 S1,1.5192,-0.524289781406249,2.5826913192676173
mp-1039136,MgCd,"[Element Cd, Element Mg]",2,Mg3 Cd3,0.0,0.026365152500001002,5.076775640289714
mp-1100827,Zr40S27,"[Element S, Element Zr]",2,Zr40 S27,0.0,-1.292167270037313,5.474755550886056
mp-1217101,Ti3S4,"[Element S, Element Ti]",2,Ti3 S4,0.0,-1.607071132857142,3.7197294571825372
mp-1094592,LiMg,"[Element Li, Element Mg]",2,Li3 Mg3,0.0,-0.011370675833333,1.221338524395252
mp-1215293,ZrMn3,"[Element Mn, Element Zr]",2,Zr3 Mn9,0.0,-0.053176155114943,7.771451531156703
mp-1096929,Zr64S127,"[Element S, Element Zr]",2,Zr64 S127,0.1044,-1.8209770612172762,3.245944991099369
mp-1220475,Nb7S8,"[Element Nb, Element S]",2,Nb7 S8,0.0,-1.227522037333333,5.9267607365360195
mp-1220681,Nb2Se3,"[Element Nb, Element Se]",2,Nb2 Se3,0.0,-0.8966087234375011,4.9516547741830195
mp-1224450,In2Te3,"[Element In, Element Te]",2,In2 Te3,0.0,-0.233251579555553,5.291268069597878
mp-1227597,Be46Ir7,"[Element Be, Element Ir]",2,Be46 Ir7,0.0,-0.20539889528301802,5.85762265167089
mp-1203179,PbI2,"[Element I, Element Pb]",2,Pb12 I24,2.282,-0.9210648011111061,5.632078502157037
mp-1094499,MgTi,"[Element Mg, Element Ti]",2,Mg3 Ti3,0.0,0.13769068083333302,3.075715657188078
mp-1094620,MgGa,"[Element Ga, Element Mg]",2,Mg3 Ga3,0.0,-0.014082396249999001,3.839539748092972
mp-1101100,Ti3S4,"[Element S, Element Ti]",2,Ti3 S4,0.2669,0.847747754285715,0.5101071318475341
mp-1041256,NiO2,"[Element Ni, Element O]",2,Ni12 O24,0.0,-0.526422325555555,4.677997361788056
mp-1096941,CuS,"[Element Cu, Element S]",2,Cu1 S1,0.0,0.015433938593751001,2.625116563235804
mp-1094429,MgZn,"[Element Mg, Element Zn]",2,Mg3 Zn3,0.0,0.017436820833333002,3.904146919207332
mp-1094219,MgSn,"[Element Mg, Element Sn]",2,Mg3 Sn3,0.0,-0.021906591666666003,4.776297650454522
mp-1226978,Cd3Au8,"[Element Au, Element Cd]",2,Cd3 Au8,0.0,0.0036040790403970005,14.098662884599229
mp-1224879,Ga2S3,"[Element Ga, Element S]",2,Ga4 S6,0.0,-0.31276391068749904,3.145262447880692
mp-1120762,Cd2S,"[Element Cd, Element S]",2,Cd2 S1,0.623899999999999,-0.295316800937503,5.399692565812861
mp-1216967,W7N6,"[Element N, Element W]",2,W14 N12,0.0,-0.282912020576921,14.67574011379466
mp-1227672,Be46Rh7,"[Element Be, Element Rh]",2,Be46 Rh7,0.0,-0.170260893207547,3.780389687884599
mp-1356781,CoO2,"[Element Co, Element O]",2,Co12 O24,0.0,-0.9684907675000001,4.678551619777537
mp-554681,ZnS,"[Element S, Element Zn]",2,Zn28 S28,2.0164,-0.9624981687276771,4.13915088132992
mp-1356217,SnO2,"[Element O, Element Sn]",2,Sn12 O24,0.0,-1.8093681605555552,5.605393168498051
mp-1359404,CoO2,"[Element Co, Element O]",2,Co12 O24,0.0,-0.9890051244444441,4.668607847408153
mp-1354468,MnO2,"[Element Mn, Element O]",2,Mn12 O24,0.0,-1.7092115956992342,4.125804352092269
mp-554630,ZnS,"[Element S, Element Zn]",2,Zn24 S24,1.9824000000000002,-0.9619329605729161,4.131565763767565
mp-1227691,Be46Os7,"[Element Be, Element Os]",2,Be46 Os7,0.0,-0.07348356886792401,5.803517926770718
mp-1380335,TiO2,"[Element O, Element Ti]",2,Ti12 O24,1.7183000000000002,-3.33056498861111,3.428841920170264