material_id,formula_pretty,elements,nelements,composition,band_gap,formation_energy_per_atom,density
mp-1185779,Mg2Sc,"[Element Mg, Element Sc]",2,Mg4 Sc2,0.0,0.010889141666666002,2.230857328210486
mp-1185838,Mg5Pt,"[Element Mg, Element Pt]",2,Mg5 Pt1,0.0,-0.27972147416666604,4.340888828967049
mp-1185865,MgGe,"[Element Ge, Element Mg]",2,Mg2 Ge2,0.0,-0.11712622125000001,4.116632083531321
mp-1185905,MgIn2,"[Element In, Element Mg]",2,Mg2 In4,0.0,-0.0074239161111090005,5.8026444277532825
mp-1185946,MgPt2,"[Element Mg, Element Pt]",2,Mg2 Pt4,0.0,-0.559503076666665,14.360223418759277
mp-1186819,Rb2Mg,"[Element Mg, Element Rb]",2,Rb4 Mg2,0.0,0.22853882166666603,1.727848167004094
mp-1187012,Sm2Mg,"[Element Mg, Element Sm]",2,Sm4 Mg2,0.0,-0.029345751666667003,5.894173010209992
mp-1191079,Ti7P4,"[Element P, Element Ti]",2,Ti14 P8,0.0,-1.199295311233766,4.664163674520122
mp-1185973,MgSn,"[Element Mg, Element Sn]",2,Mg2 Sn2,0.0,-0.09366603749999801,4.948861667270775
mp-1183959,Eu2Mg,"[Element Eu, Element Mg]",2,Eu4 Mg2,0.0,-0.0016343733333380002,5.054336868244954
mp-1185920,MgIn2,"[Element In, Element Mg]",2,Mg2 In4,0.0,-0.022577043333333,5.513575531642667
mp-1185854,MgAu2,"[Element Au, Element Mg]",2,Mg2 Au4,0.0,-0.44139412666666605,12.759186821043837
mp-1185840,MgAg2,"[Element Ag, Element Mg]",2,Mg2 Ag4,0.0,-0.157108741111109,7.2414141593621775
mp-1185878,MgHg2,"[Element Hg, Element Mg]",2,Mg2 Hg4,0.0,-0.10958984666667101,10.160804865754224
mp-1181027,HgO2,"[Element Hg, Element O]",2,Hg1 O2,0.053399999999999004,-0.05838154083333501,7.9310040661327985
mp-1185877,MgHg2,"[Element Hg, Element Mg]",2,Mg2 Hg4,0.0,-0.09230775833334301,10.578051803203525
mp-1185936,MgPb2,"[Element Mg, Element Pb]",2,Mg2 Pb4,0.0,0.016116915000007,8.690009236752207
mp-1186686,Pr2Mg,"[Element Mg, Element Pr]",2,Pr4 Mg2,0.0,-0.025791322777778004,5.22060852211598
mp-1181909,CaO2,"[Element Ca, Element O]",2,Ca1 O2,0.0,-1.9252897233333321,2.840822249859205
mp-1181961,Cr5S8,"[Element Cr, Element S]",2,Cr10 S16,0.0,-0.9787200392307681,3.749503610476083
mp-1185912,MgIn2,"[Element In, Element Mg]",2,Mg2 In4,0.0,-0.008914216111109001,5.558201818012561
mp-1183839,DyMg5,"[Element Dy, Element Mg]",2,Dy1 Mg5,0.0,0.020397292222223,3.180853235029405
mp-1185756,Mg2Ag,"[Element Ag, Element Mg]",2,Mg4 Ag2,0.0,-0.12714955388888802,4.336096894003885
mp-1185777,Mg2Sc,"[Element Mg, Element Sc]",2,Mg4 Sc2,0.0,-0.00012133333333200001,2.219154374262217
mp-1188909,EuP3,"[Element Eu, Element P]",2,Eu4 P12,0.0,-0.789089867232139,4.825491505998352
mp-1202900,Al13Fe4,"[Element Al, Element Fe]",2,Al39 Fe12,0.0,-0.32674975529411604,3.994785983689867
mp-1198191,Ti45Se16,"[Element Se, Element Ti]",2,Ti45 Se16,0.0,-0.7313048461885241,5.5841849024812635
mp-1203015,TaBr5,"[Element Br, Element Ta]",2,Ta6 Br30,2.0349,-1.386506680944442,4.779046704156569
mp-1193047,CrCl3,"[Element Cl, Element Cr]",2,Cr6 Cl18,0.0,-1.102826878541666,2.395143952495344
mp-1192095,CrCl3,"[Element Cl, Element Cr]",2,Cr6 Cl18,0.0,-1.123071821875,2.43599380766344
mp-1205462,Ti3O7,"[Element O, Element Ti]",2,Ti6 O14,2.3862,-2.690113244,1.6808114067229392
mp-1191483,Nb7As4,"[Element As, Element Nb]",2,Nb14 As8,0.0,-0.546173440909091,8.256152846420763
mp-1205444,Fe3C,"[Element C, Element Fe]",2,Fe12 C4,0.0,0.160572404999999,7.826318821883046
mp-1192251,Hf7As4,"[Element As, Element Hf]",2,Hf14 As8,0.0,-0.846660855909089,12.0576568562295
mp-1193055,Ca13Al14,"[Element Al, Element Ca]",2,Ca13 Al14,0.0,-0.29042181111111204,2.136360987919906
mp-1205504,V7O4,"[Element O, Element V]",2,V7 O4,0.0,-0.8880170063636361,4.94362144307234
mp-1203489,Al13Rh4,"[Element Al, Element Rh]",2,Al39 Rh12,0.0,-0.6470661445955891,4.724283565650323
mp-1192044,ZrCl3,"[Element Cl, Element Zr]",2,Zr6 Cl18,0.05959999999999901,-1.9363171293750012,1.919256486857743
mp-1191610,Zr7As4,"[Element As, Element Zr]",2,Zr14 As8,0.0,-0.997009414090911,7.077763293080237
mp-1195927,Fe13O19,"[Element Fe, Element O]",2,Fe13 O19,0.0,-1.391026822031249,5.466172176809756
mp-1205447,MoN,"[Element Mo, Element N]",2,Mo8 N8,0.0,-0.129919548749999,8.04020916087256
mp-1194828,Si17O37,"[Element O, Element Si]",2,Si34 O74,0.09050000000000001,-2.91909292074074,1.759911521415707
mp-1198423,Ho3Fe29,"[Element Fe, Element Ho]",2,Ho3 Fe29,0.0,0.005758315468751001,8.533154243133879
mp-1199998,SiO2,"[Element O, Element Si]",2,Si38 O76,5.5867,-3.246383286491228,1.51396018465205
mp-1201852,Nb2O5,"[Element Nb, Element O]",2,Nb16 O40,1.9717,-3.028699133928571,4.341061036091466
mp-1203,TiO,"[Element O, Element Ti]",2,Ti5 O5,0.0,-2.855383131166665,4.934842399291236
mp-1205422,Hf2Co7,"[Element Co, Element Hf]",2,Hf4 Co14,0.0,-0.22264913331847902,11.054054496920992
mp-1209538,Rb2Mo,"[Element Mo, Element Rb]",2,Rb4 Mo2,0.0,1.071103615,2.643320661840915
mp-1206498,MoO4,"[Element Mo, Element O]",2,Mo2 O8,0.9082,-0.9325291290000011,3.772587983051846
mp-1207855,V5Te8,"[Element Te, Element V]",2,V5 Te8,0.0,-0.601765306410254,6.424888053689025
mp-1207993,Tm5Ga3,"[Element Ga, Element Tm]",2,Tm10 Ga6,0.0,-0.594515273750001,8.944093925315741
mp-1207735,Y8Te3,"[Element Te, Element Y]",2,Y32 Te12,0.0,-0.8144028104545441,5.504082585642282
mp-1213313,Eu5Ga3,"[Element Eu, Element Ga]",2,Eu10 Ga6,0.0,-0.393490012812502,6.248113262994587
mp-1216463,V7S8,"[Element S, Element V]",2,V7 S8,0.0,-1.172572197333333,4.778354221725124
mp-1208221,Ti5Te8,"[Element Te, Element Ti]",2,Ti5 Te8,0.0,-0.8498283341025661,6.116331433040248
mp-1213756,Cr7Te8,"[Element Cr, Element Te]",2,Cr7 Te8,0.0,-0.34003606088888805,6.362647158761133
mp-1205852,Tb2Cl3,"[Element Cl, Element Tb]",2,Tb4 Cl6,0.8523000000000001,-2.094997655499997,5.325965261180985
mp-1215522,ZnNi,"[Element Ni, Element Zn]",2,Zn1 Ni1,0.0,-0.129228334999999,8.389324962053658
mp-1215090,Al19Co6,"[Element Al, Element Co]",2,Al38 Co12,0.0,-0.361538210399999,4.07341347933445
mp-1205858,Hf2Ni7,"[Element Hf, Element Ni]",2,Hf2 Ni7,0.0,-0.43812105444444505,11.45843327267504
mp-1206891,RhI3,"[Element I, Element Rh]",2,Rh2 I6,1.0096,-0.5667571437499991,5.791394507225584
mp-1207893,V5Se8,"[Element Se, Element V]",2,V5 Se8,0.0,-0.9437275209615361,5.633266116089307
mp-1213754,Cr5Te8,"[Element Cr, Element Te]",2,Cr5 Te8,0.0,-0.47490478717948803,6.319286944545744
mp-1205567,Y2Br3,"[Element Br, Element Y]",2,Y4 Br6,0.6648000000000001,-1.838593256999999,4.512657884559931
mp-1205955,K5Bi4,"[Element Bi, Element K]",2,K5 Bi4,0.0,-0.48476825986110905,4.439651848776721
mp-1207504,Zn22Ni3,"[Element Ni, Element Zn]",2,Zn22 Ni3,0.0,-0.1290045576,7.862126667974482
mp-1213182,Fe13Mo9,"[Element Fe, Element Mo]",2,Fe26 Mo18,0.0,-0.00435140590909,9.5422688237106
mp-1207439,Zr5Zn39,"[Element Zn, Element Zr]",2,Zr5 Zn39,0.0,-0.194322052272728,7.545673981532872
mp-1217312,TeI4,"[Element I, Element Te]",2,Te1 I4,0.1278,-0.32310606133333303,4.541590566224836
mp-1208223,Ti5S8,"[Element S, Element Ti]",2,Ti5 S8,0.0,-1.696053202820513,3.490073400204189
mp-1210582,MnZn13,"[Element Mn, Element Zn]",2,Mn1 Zn13,0.0,0.051779541465519004,6.981360849921663
mp-1210677,Mg2Ir3,"[Element Ir, Element Mg]",2,Mg10 Ir15,0.0,-0.345407204000002,12.724783330616724
mp-1215598,Zr2Se3,"[Element Se, Element Zr]",2,Zr4 Se6,0.0,-1.5826493064375,5.985687278602991
mp-1206058,TlCl3,"[Element Cl, Element Tl]",2,Tl2 Cl6,2.199799999999999,-1.1244716308333351,4.406289979582581
mp-1215137,CS30,"[Element C, Element S]",2,C1 S30,0.019200000000000002,0.9383544490322581,0.34031583885015804
mp-1217971,Ta2H,"[Element H, Element Ta]",2,Ta2 H1,0.0,-0.10764608780555301,15.777972760551163
mp-1215649,Zn13Fe,"[Element Fe, Element Zn]",2,Zn13 Fe1,0.0,0.07113206500000001,7.187238895423539
mp-1217739,Tb4Si7,"[Element Si, Element Tb]",2,Tb8 Si14,0.0,-0.6561589995454561,6.242610063081759
mp-1217149,Ti9O10,"[Element O, Element Ti]",2,Ti9 O10,0.0,-2.7673683331578953,4.48376594575372
mp-1210567,MnZn13,"[Element Mn, Element Zn]",2,Mn1 Zn13,0.0,-0.018656289963055,7.472561093164602
mp-1211583,KC2,"[Element C, Element K]",2,K2 C4,0.067399999999999,1.290228474354169,1.456838832023919
mp-1218446,Sr4N3,"[Element N, Element Sr]",2,Sr4 N3,0.0,-0.489656823750002,3.8736658583117762
mp-1220493,NdCo,"[Element Co, Element Nd]",2,Nd5 Co5,0.0,0.07431147303030601,7.9665507125959945
mp-1226358,Cr7Se10,"[Element Cr, Element Se]",2,Cr14 Se20,0.117899999999999,-0.0067487578492640005,5.525378330873978
mp-1232782,CrN,"[Element Cr, Element N]",2,Cr4 N4,0.0,-0.701616664374999,6.126142193788892
mp-1220085,Ni3Te4,"[Element Ni, Element Te]",2,Ni3 Te4,0.0,-0.190352328571427,8.01232243755661
mp-1224390,HfAu9,"[Element Au, Element Hf]",2,Hf1 Au9,0.0,-0.213183162999996,18.243501178232588
mp-1228956,AlAu4,"[Element Al, Element Au]",2,Al1 Au4,0.0,-0.152588825999998,14.968187302681958
mp-1218055,Ta7S12,"[Element S, Element Ta]",2,Ta7 S12,0.0,-1.380009600070174,7.546023693706309
mp-1218065,Ta6O,"[Element O, Element Ta]",2,Ta12 O2,0.0,-0.638052871999998,15.785084753384506
mp-1235252,LiO8,"[Element Li, Element O]",2,Li1 O8,0.0,-0.41782946370370305,1.9977602742550662
mp-1220830,Nb12N11,"[Element N, Element Nb]",2,Nb12 N11,0.0,-1.050015661431162,8.05111863456833
mp-1223969,HgPb2,"[Element Hg, Element Pb]",2,Hg1 Pb2,0.0,0.033000688333335006,11.052462588233434
mp-1224025,In3Sn,"[Element In, Element Sn]",2,In3 Sn1,0.0,0.038563941250000004,7.043161471136103
mp-1236522,LiO8,"[Element Li, Element O]",2,Li1 O8,0.2727,-0.357006413703703,1.777777671752737
mp-1218160,Ta2O5,"[Element O, Element Ta]",2,Ta6 O15,0.0,-3.173291355666667,7.988903941217434
mp-1220932,Na5Si51,"[Element Na, Element Si]",2,Na10 Si102,0.0,0.075954221803417,2.136672042314455
mp-1219748,PtCl2,"[Element Cl, Element Pt]",2,Pt2 Cl4,1.051499999999999,-0.42604107833333105,5.820799425937796
mp-1221495,MoCl3,"[Element Cl, Element Mo]",2,Mo4 Cl12,0.2942,-0.9810700753125001,3.495428993410171
mp-1228799,AsP,"[Element As, Element P]",2,As2 P2,0.45819999999999905,0.059072495833333,3.811700291702115
mp-1245211,Al2O3,"[Element Al, Element O]",2,Al16 O24,3.779599999999999,-3.37749066775,3.691950200962556
mp-1218017,Ta5S8,"[Element S, Element Ta]",2,Ta5 S8,0.0,-1.354510658205131,8.030175605407686
mp-1228647,B3Ir2,"[Element B, Element Ir]",2,B6 Ir4,0.0,-0.11118472683333201,13.53510450375326
mp-1221185,Na7Si51,"[Element Na, Element Si]",2,Na14 Si102,0.0,0.054296933885998,2.190822651539354
mp-1228854,AlNi,"[Element Al, Element Ni]",2,Al1 Ni1,0.0,-0.438242119999999,5.712371063731962
mp-1237483,Mg4Si3,"[Element Mg, Element Si]",2,Mg8 Si6,0.0,0.564808258571428,1.082915521510974
mp-1225993,Cu2S,"[Element Cu, Element S]",2,Cu4 S2,1.2158,-0.150157121354165,3.478881184761393
mp-1223890,In4Pb,"[Element In, Element Pb]",2,In4 Pb1,0.0,0.008507498,8.057281461474862
mp-1223990,In4Bi,"[Element Bi, Element In]",2,In4 Bi1,0.0,0.040367487999998,7.685874047774097
mp-1224313,In9Cu11,"[Element Cu, Element In]",2,In9 Cu11,0.0,-0.016017111167857,8.35910411714096
mp-1219775,PuIn,"[Element In, Element Pu]",2,Pu1 In1,0.0,-0.287101919374997,11.039907182143757
mp-1227392,Ca2Bi7,"[Element Bi, Element Ca]",2,Ca2 Bi7,0.0,-0.199560497777787,8.857656087057112
mp-1221957,MgIn,"[Element In, Element Mg]",2,Mg1 In1,0.0,-0.040282590833332,4.812542458042048
mp-1267863,Mg2Si3,"[Element Mg, Element Si]",2,Mg8 Si12,0.0,0.171221498999999,2.465474076382643
mp-1248957,SiO2,"[Element O, Element Si]",2,Si32 O64,5.7415,-3.251251415208333,1.630401858383801
mp-1402363,MoN2,"[Element Mo, Element N]",2,Mo2 N4,0.0,-0.095883113333333,5.300060403613052
mp-1399565,CrO2,"[Element Cr, Element O]",2,Cr2 O4,1.0276,-1.664831958333334,3.9664558891490023
mp-1343966,Co9O13,"[Element Co, Element O]",2,Co9 O13,0.0,-1.003932737045455,4.9623199981995025
mp-1337,MoAs2,"[Element As, Element Mo]",2,Mo2 As4,0.0,-0.27182744000000003,8.016767209538022
mp-1388338,Cr3O8,"[Element Cr, Element O]",2,Cr3 O8,0.0,-1.351138913636363,3.182042350190738
mp-13494,Nd3Fe29,"[Element Fe, Element Nd]",2,Nd3 Fe29,0.0,0.043066547734376,7.82735187639781
mp-1399869,CrN2,"[Element Cr, Element N]",2,Cr2 N4,0.0,0.056654660416666,4.225284244045619
mp-1260852,MgSi2,"[Element Mg, Element Si]",2,Mg4 Si8,0.0,0.187131777499999,2.59783797982248
mp-1262925,Mg2Si3,"[Element Mg, Element Si]",2,Mg8 Si12,0.0,0.19329341400000002,2.491225973508409
mp-1274279,FeO,"[Element Fe, Element O]",2,Fe4 O4,1.8157,-1.481519387499999,5.6148992124359385
mp-1246684,CuAs,"[Element As, Element Cu]",2,Cu5 As5,0.0,0.19522826850000202,7.157044152543853
mp-12561,TaAs2,"[Element As, Element Ta]",2,Ta2 As4,0.013399999999999001,-0.531900830777781,10.130225829850296
mp-1249637,SiO2,"[Element O, Element Si]",2,Si56 O112,5.6978,-3.25277012922619,1.529545904977355
mp-1272680,CoO2,"[Element Co, Element O]",2,Co4 O8,1.2544,-1.058268314166666,4.470409478608143
mp-13363,SiPt3,"[Element Pt, Element Si]",2,Si2 Pt6,0.0,-0.539309381249999,17.069395348068234
mp-13412,Y3Fe29,"[Element Fe, Element Y]",2,Y3 Fe29,0.0,0.0010613556250010001,7.372761085102824
mp-1262552,MgSi2,"[Element Mg, Element Si]",2,Mg4 Si8,0.0,0.17277407833333303,2.567198996155022
mp-1248087,Si3Ag,"[Element Ag, Element Si]",2,Si6 Ag2,0.0,0.44624430083333305,4.765314340794717
mp-1287184,VO,"[Element O, Element V]",2,V4 O4,1.9785,-2.085321828749999,5.594731491792294
mp-13447,Zn13Rh,"[Element Rh, Element Zn]",2,Zn13 Rh1,0.0,-0.134944325357143,7.906493451914335
mp-1393345,Mo3O8,"[Element Mo, Element O]",2,Mo3 O8,1.1467,-1.69357952909091,4.183902144032892
mp-1271165,CoF3,"[Element Co, Element F]",2,Co4 F12,0.22530000000000003,-2.136501503125,3.369445142031891
mp-1342828,Fe9O13,"[Element Fe, Element O]",2,Fe9 O13,0.0,-1.42339639159091,4.536255781329282
mp-15325,BaAs3,"[Element As, Element Ba]",2,Ba2 As6,0.0,-0.619441594374999,5.318626582797692
mp-1523643,VTe2,"[Element Te, Element V]",2,V1 Te2,0.0,-0.600824632222217,6.196438337179768
mp-1474,Re3P4,"[Element P, Element Re]",2,Re3 P4,0.0,-0.41948465420067904,11.090144341162606
mp-1407329,WN2,"[Element N, Element W]",2,W2 N4,0.0,-0.25932343770833605,9.178820302394804
mp-1419585,MoN,"[Element Mo, Element N]",2,Mo2 N2,0.0,-0.29097960250000005,7.6467230013653715
mp-15669,Ti3Te4,"[Element Te, Element Ti]",2,Ti3 Te4,0.0,-0.856451345714284,6.191629014074407
mp-1863,SiAs,"[Element As, Element Si]",2,Si6 As6,1.451899999999999,-0.11968439208333301,3.5590785713465802
mp-15681,CrAs2,"[Element As, Element Cr]",2,Cr2 As4,0.0,-0.11379741500000001,7.391407070644418
mp-15670,Y5S7,"[Element S, Element Y]",2,Y5 S7,0.0,-2.3785692108072922,4.043469778164344
mp-1445439,TeN2,"[Element N, Element Te]",2,Te2 N4,0.0,1.090759937777778,6.248322331570299
mp-1595,Nb2O5,"[Element Nb, Element O]",2,Nb2 O5,2.171,-3.026667726428572,4.376949510667836
mp-1404844,W3O8,"[Element O, Element W]",2,W3 O8,1.6161999999999992,-1.836537724545453,6.712067488762957
mp-1544973,NpCl4,"[Element Cl, Element Np]",2,Np2 Cl8,0.1607,-2.054117267749999,4.791698892668669
mp-1722,Zn13Fe,"[Element Fe, Element Zn]",2,Zn13 Fe1,0.0,-0.030845707142856,7.626849799103289
mp-18254,Nb7P4,"[Element Nb, Element P]",2,Nb14 P8,0.0,-0.858972528961039,7.326341468175409
mp-1745,Sm2O3,"[Element O, Element Sm]",2,Sm6 O9,3.7443,-3.848228371499999,7.736961882448128
mp-18280,SiO2,"[Element O, Element Si]",2,Si12 O24,5.7361,-3.257033750277777,1.709287612182695
mp-1551,Te2Ir,"[Element Ir, Element Te]",2,Te6 Ir3,0.0,-0.363477538888894,10.212704443011596
mp-18622,Hf7P4,"[Element Hf, Element P]",2,Hf14 P8,0.0,-1.155794342445894,11.68081151088739
mp-17279,SiO2,"[Element O, Element Si]",2,Si16 O32,5.7151,-3.252491369375001,1.6805139235541442
mp-1545138,TbCo3,"[Element Co, Element Tb]",2,Tb3 Co9,0.0,-0.10863823416666601,9.511560975256725
mp-17880,Al13Ru4,"[Element Al, Element Ru]",2,Al39 Ru12,0.0,-0.5809319082352941,4.809747119812436
mp-1588,C11F7,"[Element C, Element F]",2,C22 F14,2.2206,-0.559002428576386,1.7210133562689292
mp-1949090,Ca2Mg,"[Element Ca, Element Mg]",2,Ca4 Mg2,0.0,-0.041463138333333004,1.6370438755995291
mp-21405,InSe,"[Element In, Element Se]",2,In4 Se4,1.0804,-0.6400547320312491,5.633458363099015
mp-2013388,MgHg2,"[Element Hg, Element Mg]",2,Mg2 Hg4,0.0,-0.115072893333338,10.789467462037585
mp-2016042,MgPb2,"[Element Mg, Element Pb]",2,Mg2 Pb4,0.0,-0.049801351666668006,8.577880406046035
mp-18687,NbF5,"[Element F, Element Nb]",2,Nb4 F20,4.5694,-3.158893295833332,3.73589146971675
mp-2017630,Y2Co7,"[Element Co, Element Y]",2,Y4 Co14,0.0,-0.097187630555554,7.593159534203232
mp-2036083,TmMg5,"[Element Mg, Element Tm]",2,Tm1 Mg5,0.0,0.006483157499999,3.361932691972365
mp-2034362,In3Sn,"[Element In, Element Sn]",2,In3 Sn1,0.0,0.062335989999997,7.203102999819543
mp-21589,Ga9Ni13,"[Element Ga, Element Ni]",2,Ga9 Ni13,0.0,-0.37577776590909,8.791707566625856
mp-18896,V6O13,"[Element O, Element V]",2,V12 O26,0.5218,-2.39171737868421,3.927264190918772
mp-1975010,CdHg2,"[Element Cd, Element Hg]",2,Cd1 Hg2,0.0,0.022284121666662,11.812561985787337
mp-2014814,Cu2S,"[Element Cu, Element S]",2,Cu4 S2,0.9229,-0.13952935927083301,4.432904368398873
mp-2018161,Sr5Mg,"[Element Mg, Element Sr]",2,Sr5 Mg1,0.0,0.037165364166665,2.534560566664929
mp-2026078,V5Te4,"[Element Te, Element V]",2,V5 Te4,0.0,-0.531817333333334,6.270902953775892
mp-2037445,Nb2Te3,"[Element Nb, Element Te]",2,Nb4 Te6,0.0,-0.521705764,6.992976044264652
mp-1975297,Na2O,"[Element Na, Element O]",2,Na4 O2,1.6666999999999992,-1.327614074252872,2.1778206941990232
mp-2037918,MgGa,"[Element Ga, Element Mg]",2,Mg2 Ga2,0.0,-0.1111318475,4.137799987043994
mp-18654,Cr3Ga4,"[Element Cr, Element Ga]",2,Cr9 Ga12,0.0,0.011925793333335,7.209872062285886
mp-1967,TaTe2,"[Element Ta, Element Te]",2,Ta9 Te18,0.0,-0.641113326518515,8.634822862592657
mp-2039668,VF4,"[Element F, Element V]",2,V2 F8,1.5689000000000002,-2.982008361,3.304858277707747
mp-2045196,Tb2Co7,"[Element Co, Element Tb]",2,Tb4 Co14,0.0,-0.105381004999998,9.397660293470844
mp-1969,NbSb2,"[Element Nb, Element Sb]",2,Nb2 Sb4,0.0047,-0.314983543333336,8.096961771913243
mp-1974719,Ta2O5,"[Element O, Element Ta]",2,Ta2 O5,3.1608,-3.190680617809522,5.999954307591355
mp-21237,CoGe,"[Element Co, Element Ge]",2,Co4 Ge4,0.0,-0.072474573750001,8.432408064668786
mp-18922,Mn5O8,"[Element Mn, Element O]",2,Mn5 O8,0.5504,-1.956560843050398,4.9291101309361895
mp-20174,Ni3Sn4,"[Element Ni, Element Sn]",2,Ni3 Sn4,0.0,-0.22278011999999803,8.701535132444633
mp-21042,Te4Pt3,"[Element Pt, Element Te]",2,Te4 Pt3,0.0,0.140713978571434,7.515143826443664
mp-2036706,TiCl3,"[Element Cl, Element Ti]",2,Ti2 Cl6,0.009199999999999,-1.804791176041666,2.644300886173719
mp-2047263,Mg4Zn7,"[Element Mg, Element Zn]",2,Mg20 Zn35,0.0,-0.146479032090909,5.155028774756582
mp-2461,CaGa4,"[Element Ca, Element Ga]",2,Ca1 Ga4,0.0,-0.42175217000000004,5.387038823403971
mp-23307,NbCl5,"[Element Cl, Element Nb]",2,Nb6 Cl30,2.2227,-1.370875040972222,2.599826445139612
mp-25469,AlCl3,"[Element Al, Element Cl]",2,Al2 Cl6,5.263,-1.692806269374999,2.40641043516053
mp-2353328,ZrCl3,"[Element Cl, Element Zr]",2,Zr2 Cl6,0.068899999999999,-1.906630995625001,2.746412764194741
mp-27182,GdBr3,"[Element Br, Element Gd]",2,Gd2 Br6,2.2701000000000002,-2.3183582925,4.358708510626524
mp-2623,V4As3,"[Element As, Element V]",2,V8 As6,0.0,-0.607364221785715,6.492569929951467
mp-2647063,RuCl3,"[Element Cl, Element Ru]",2,Ru4 Cl12,0.0,-0.975664244999999,3.399896572158983
mp-27153,UBr4,"[Element Br, Element U]",2,U2 Br8,0.21150000000000002,-1.76299271,5.097944665876571
mp-22700,V3Se4,"[Element Se, Element V]",2,V3 Se4,0.0,-0.91376362517857,6.102751891055088
mp-2360071,CuBr2,"[Element Br, Element Cu]",2,Cu1 Br2,0.0,-0.672241919999999,4.076179186911299
mp-2278,HgO2,"[Element Hg, Element O]",2,Hg1 O2,0.14619999999999903,-0.041631134166668006,7.979340640453219
mp-22510,FeGe,"[Element Fe, Element Ge]",2,Fe4 Ge4,0.0,-0.102324647499999,7.783657232864989
mp-22853,MoCl3,"[Element Cl, Element Mo]",2,Mo2 Cl6,0.150099999999999,-0.9998242821875001,3.211353196488326
mp-2460,Er2O3,"[Element Er, Element O]",2,Er6 O9,4.1023,-4.022894670833329,9.648473202345551
mp-27160,WCl5,"[Element Cl, Element W]",2,W6 Cl30,0.0,-0.9445113462500001,3.632679496771701