material_id,formula_pretty,elements,nelements,composition,band_gap,formation_energy_per_atom,density
mp-1183082,Ac3Zr,"[Element Ac, Element Zr]",2,Ac3 Zr1,0.0,0.274383305625001,8.44562670528105
mp-1183090,Ac3Cd,"[Element Ac, Element Cd]",2,Ac3 Cd1,0.0,-0.07830334427082801,8.513907951860771
mp-1183096,Ac3I,"[Element Ac, Element I]",2,Ac3 I1,0.0,-0.23379942312499902,7.958048350154888
mp-1183201,Au3Cl,"[Element Au, Element Cl]",2,Au3 Cl1,0.0,0.280503911875001,13.659102334048981
mp-1183092,Ac3Zn,"[Element Ac, Element Zn]",2,Ac3 Zn1,0.0,0.068955214739574,8.386482896353064
mp-1183087,Ac3Lu,"[Element Ac, Element Lu]",2,Ac3 Lu1,0.0,0.074352725625004,8.679980294323821
mp-1183202,Ag3As,"[Element Ag, Element As]",2,Ag3 As1,0.0,0.09439199874999801,8.97010786009527
mp-1181275,La11Sn10,"[Element La, Element Sn]",2,La22 Sn20,0.0,-0.9201907644047651,6.581848037223543
mp-1183094,Ac3V,"[Element Ac, Element V]",2,Ac3 V1,0.0,0.49425355062500304,8.3089785939614
mp-1183208,AlGa3,"[Element Al, Element Ga]",2,Al1 Ga3,0.0,0.124630765,5.743606581348054
mp-1183214,Ag3Au,"[Element Ag, Element Au]",2,Ag3 Au1,0.0,-0.061303661249997005,12.434135258203163
mp-1183189,Al3Au,"[Element Al, Element Au]",2,Al3 Au1,0.0,-0.168010847500003,6.933301201630009
mp-1183097,Ac3Mo,"[Element Ac, Element Mo]",2,Ac3 Mo1,0.0,0.6916704356249991,9.377220856369709
mp-1183175,Al3Pt,"[Element Al, Element Pt]",2,Al3 Pt1,0.0,-0.504874686406243,7.452115543021319
mp-1183203,AlGe3,"[Element Al, Element Ge]",2,Al1 Ge3,0.0,0.250985838749999,5.427653196999068
mp-1181437,FeO,"[Element Fe, Element O]",2,Fe1 O1,1.886099999999999,-0.42865644750000004,1.214419691197656
mp-1179454,SiO2,"[Element O, Element Si]",2,Si4 O8,5.5301,-3.25399227,1.910133216362803
mp-1183108,Ac3Ti,"[Element Ac, Element Ti]",2,Ac3 Ti1,0.0,0.39966871479167304,8.254063492955588
mp-1183081,Ac3Dy,"[Element Ac, Element Dy]",2,Ac3 Dy1,0.0,0.06687583312499601,8.42104366462826
mp-1183095,Ac3La,"[Element Ac, Element La]",2,Ac3 La1,0.0,0.032081053125004005,7.728659383101937
mp-1183091,Ac3Er,"[Element Ac, Element Er]",2,Ac3 Er1,0.0,0.07069343312500101,8.452892521981868
mp-1183333,Ba3Y,"[Element Ba, Element Y]",2,Ba3 Y1,0.0,0.24040096500000002,4.010431347985963
mp-1183340,Ba3Ho,"[Element Ba, Element Ho]",2,Ba3 Ho1,0.0,0.250237113750001,4.639562247400872
mp-1183337,Ba3Ac,"[Element Ac, Element Ba]",2,Ba3 Ac1,0.0,0.11313008937499901,4.6439207259564625
mp-1183217,AcTb3,"[Element Ac, Element Tb]",2,Ac1 Tb3,0.0,0.070870708124999,8.302057251879335
mp-1183215,AlCd3,"[Element Al, Element Cd]",2,Al1 Cd3,0.0,0.11532127250000102,7.035827706738082
mp-1183226,AcY3,"[Element Ac, Element Y]",2,Ac1 Y3,0.0,0.098554685624996,5.6797071452633805
mp-1183234,AcSe3,"[Element Ac, Element Se]",2,Ac1 Se3,0.0,-1.202043878671876,7.495921073984983
mp-1183356,Ba3Na,"[Element Ba, Element Na]",2,Ba3 Na1,0.0,0.06931282715517201,3.065818983012419
mp-1183230,AcSm3,"[Element Ac, Element Sm]",2,Ac1 Sm3,0.0,0.047457853124996,7.684886951888176
mp-1183307,Ac3Ce,"[Element Ac, Element Ce]",2,Ac3 Ce1,0.0,0.17250888187500302,9.27794537808979
mp-1183235,AcNd3,"[Element Ac, Element Nd]",2,Ac1 Nd3,0.0,0.037401254999998,7.222751365085316
mp-1183241,AcPm3,"[Element Ac, Element Pm]",2,Ac1 Pm3,0.0,0.042095302500001,7.395099213769491
mp-1183239,AcPr3,"[Element Ac, Element Pr]",2,Ac1 Pr3,0.0,0.042426806874999,6.963544360654057
mp-1183326,BaPm3,"[Element Ba, Element Pm]",2,Ba1 Pm3,0.0,0.19113932187500002,6.187146775242846
mp-1183341,Ba3Li,"[Element Ba, Element Li]",2,Ba3 Li1,0.0,0.11264549166666601,3.16775462066498
mp-1183343,Ba3Tb,"[Element Ba, Element Tb]",2,Ba3 Tb1,0.0,0.23719697083333302,4.577494123984128
mp-1183353,Ba3Sm,"[Element Ba, Element Sm]",2,Ba3 Sm1,0.0,0.21202121874999902,4.404875151934389
mp-1183303,BaF3,"[Element Ba, Element F]",2,Ba1 F3,0.0,-3.13197862625,5.237560801468674
mp-1183345,Ba3Sr,"[Element Ba, Element Sr]",2,Ba3 Sr1,0.0,0.015116982499999002,3.202172138924438
mp-1183245,AgGe3,"[Element Ag, Element Ge]",2,Ag1 Ge3,0.0,0.28528358208333404,6.860004287321993
mp-1183278,AlPb3,"[Element Al, Element Pb]",2,Al1 Pb3,0.0,0.156096374999997,9.222350772133199
mp-1183336,Ba3Tm,"[Element Ba, Element Tm]",2,Ba3 Tm1,0.0,0.257135439999998,4.710804582039163
mp-1183352,Ba3Nd,"[Element Ba, Element Nd]",2,Ba3 Nd1,0.0,0.19415141562500002,4.366963082669642
mp-1183360,Ba3Te,"[Element Ba, Element Te]",2,Ba3 Te1,0.0,-0.645767896666666,4.6609739409915445
mp-1183361,Ba3Yb,"[Element Ba, Element Yb]",2,Ba3 Yb1,0.0,0.31857332999999904,4.600917521607824
mp-1183256,AgPb3,"[Element Ag, Element Pb]",2,Ag1 Pb3,0.0,0.085092758333338,10.637230010847395
mp-1183224,AgAu3,"[Element Ag, Element Au]",2,Ag1 Au3,0.0,-0.063135743750002,16.57513603963357
mp-1183262,AcCe3,"[Element Ac, Element Ce]",2,Ac1 Ce3,0.0,0.14289171312499602,8.600180790665805
mp-1183332,BaCa3,"[Element Ba, Element Ca]",2,Ba1 Ca3,0.0,0.03701716,2.252467953758166
mp-1183335,BaSr3,"[Element Ba, Element Sr]",2,Ba1 Sr3,0.0,0.008801600000000001,2.796907871930608
mp-1183342,Ba3Ca,"[Element Ba, Element Ca]",2,Ba3 Ca1,0.0,0.0392140475,3.096433751471035
mp-1183407,Be3Si,"[Element Be, Element Si]",2,Be3 Si1,0.0,0.28710140374999904,2.298018932239553
mp-1183502,Ca3V,"[Element Ca, Element V]",2,Ca3 V1,0.0,0.480922082499999,2.153103502386209
mp-1183411,Be3Rh,"[Element Be, Element Rh]",2,Be3 Rh1,0.0,-0.429666691249999,5.676437901555782
mp-1183382,Ba3Pa,"[Element Ba, Element Pa]",2,Ba3 Pa1,0.0,0.7545531025000001,5.54684708242356
mp-1183477,BiPt3,"[Element Bi, Element Pt]",2,Bi1 Pt3,0.0,0.001618136250002,18.036002628015304
mp-1183365,Ba3Pm,"[Element Ba, Element Pm]",2,Ba3 Pm1,0.0,0.209435940624999,4.387120449625028
mp-1183497,CaDy3,"[Element Ca, Element Dy]",2,Ca1 Dy3,0.0,0.13227563750000101,6.641053313942232
mp-1183408,Be3Pd,"[Element Be, Element Pd]",2,Be3 Pd1,0.0,-0.31323701125000003,5.580091965037266
mp-1183427,BeGe3,"[Element Be, Element Ge]",2,Be1 Ge3,0.0,0.518370652499999,5.538370586706385
mp-1183515,Ca3Y,"[Element Ca, Element Y]",2,Ca3 Y1,0.0,0.132542650833332,2.189787291620134
mp-1183428,BeGa3,"[Element Be, Element Ga]",2,Be1 Ga3,0.0,0.276137173124999,5.72121687667725
mp-1183432,BeNi3,"[Element Be, Element Ni]",2,Be1 Ni3,0.0,-0.15894609874999902,7.6556505893710725
mp-1183495,BePb3,"[Element Be, Element Pb]",2,Be1 Pb3,0.0,0.528048536250002,9.522380802474947
mp-1183597,CaHo3,"[Element Ca, Element Ho]",2,Ca1 Ho3,0.0,0.14040085000000202,6.770310498147222
mp-1183635,Cd3Pd,"[Element Cd, Element Pd]",2,Cd3 Pd1,0.0,-0.19077580999999902,9.863587379381217
mp-1183641,Cd3Pt,"[Element Cd, Element Pt]",2,Cd3 Pt1,0.0,-0.1574664275,11.881045064720851
mp-1183580,Cd3B,"[Element B, Element Cd]",2,Cd3 B1,0.0,0.849151725208333,7.752724706232261
mp-1183590,CaF3,"[Element Ca, Element F]",2,Ca1 F3,0.0,-3.024616813125,3.466050123281636
mp-1183378,BaPa3,"[Element Ba, Element Pa]",2,Ba1 Pa3,0.0,0.7123521025,12.419855513545604
mp-1183423,Be3Co,"[Element Be, Element Co]",2,Be3 Co1,0.0,-0.285188863749999,4.272686656558092
mp-1183438,Ba3Ce,"[Element Ba, Element Ce]",2,Ba3 Ce1,0.0,0.301475077500001,4.038786940101951
mp-1183504,Bi3Au,"[Element Au, Element Bi]",2,Bi3 Au1,0.0,0.16731542437500402,12.057380525920854
mp-1183473,BeRu3,"[Element Be, Element Ru]",2,Be1 Ru3,0.0,0.09186876374999901,10.054537860645997
mp-1183424,Be3Ge,"[Element Be, Element Ge]",2,Be3 Ge1,0.0,0.37617493749999903,3.878417689071558
mp-1183435,Ce3Er,"[Element Ce, Element Er]",2,Ce3 Er1,0.0,0.089779211249999,8.499467973634827
mp-1183620,CaEu3,"[Element Ca, Element Eu]",2,Ca1 Eu3,0.0,0.046251483749998004,4.674904147173979
mp-1183387,BaEu3,"[Element Ba, Element Eu]",2,Ba1 Eu3,0.0,0.07022323124999501,5.02378053898956
mp-1183412,BeAl3,"[Element Al, Element Be]",2,Be1 Al3,0.0,0.15958069625000001,2.570188667827604
mp-1183587,Cd3As,"[Element As, Element Cd]",2,Cd3 As1,0.0,0.143521790625001,7.65951293391474
mp-1183511,CaAg3,"[Element Ag, Element Ca]",2,Ca1 Ag3,0.0,-0.16403876624999802,7.419057293086879
mp-1183657,CdBi3,"[Element Bi, Element Cd]",2,Cd1 Bi3,0.0,0.107834515,10.093279310066269
mp-1183665,Cd3Se,"[Element Cd, Element Se]",2,Cd3 Se1,0.0,-0.14159297808593602,6.814105615987865
mp-1183643,CdAu3,"[Element Au, Element Cd]",2,Cd1 Au3,0.0,-0.15000073000000202,16.12023540608654
mp-1183646,Cd3Ga,"[Element Cd, Element Ga]",2,Cd3 Ga1,0.0,0.081890297499999,8.03548865698864
mp-1183713,CeH3,"[Element Ce, Element H]",2,Ce1 H3,0.0,-0.621530514765623,5.965126825277806
mp-1183644,Cd3Ge,"[Element Cd, Element Ge]",2,Cd3 Ge1,0.0,0.127113786249999,7.594430154875318
mp-1183647,CdAg3,"[Element Ag, Element Cd]",2,Cd1 Ag3,0.0,-0.046257173749996,10.053746698253118
mp-1183658,Cd3Bi,"[Element Bi, Element Cd]",2,Cd3 Bi1,0.0,0.10372006374999901,9.059156101472897
mp-1183650,CdHg3,"[Element Cd, Element Hg]",2,Cd1 Hg3,0.0,0.037578841875003,11.845209056673452
mp-1183645,Cd3Ir,"[Element Cd, Element Ir]",2,Cd3 Ir1,0.0,0.055455047682926,11.742894113534222
mp-1183782,Ce3Sm,"[Element Ce, Element Sm]",2,Ce3 Sm1,0.0,0.09701330249999801,8.265269527356576
mp-1183746,Ce3Hg,"[Element Ce, Element Hg]",2,Ce3 Hg1,0.0,-0.184465864374999,9.283755483333154
mp-1183721,CrAg3,"[Element Ag, Element Cr]",2,Cr1 Ag3,0.0,0.26801541,8.81530671876435
mp-1183824,Ce3Th,"[Element Ce, Element Th]",2,Ce3 Th1,0.0,0.025644395,9.815801780512171
mp-1183660,CdPb3,"[Element Cd, Element Pb]",2,Cd1 Pb3,0.0,0.05647821000000101,10.402806541674828
mp-1183714,Co3I,"[Element Co, Element I]",2,Co3 I1,0.0,0.6614229487499991,9.308774002279499
mp-1183718,Co3Os,"[Element Co, Element Os]",2,Co3 Os1,0.0,0.122929608749998,13.37001756933467
mp-1183723,Cr3H,"[Element Cr, Element H]",2,Cr3 H1,0.0,0.757945975000001,6.4248691301779655
mp-1183787,CeEr3,"[Element Ce, Element Er]",2,Ce1 Er3,0.0,0.08226233874999801,8.603803688577909
mp-1183827,Ce3Hf,"[Element Ce, Element Hf]",2,Ce3 Hf1,0.0,0.101862263749999,9.622689436722238
mp-1183813,CeTm3,"[Element Ce, Element Tm]",2,Ce1 Tm3,0.0,0.08328868124999601,8.961383908239487
mp-1183649,CdGe3,"[Element Cd, Element Ge]",2,Cd1 Ge3,0.0,0.287999508749999,6.5852887550472765
mp-1183720,CdSn3,"[Element Cd, Element Sn]",2,Cd1 Sn3,0.0,0.2034946325,7.379913911460079
mp-1183699,Co3Te,"[Element Co, Element Te]",2,Co3 Te1,0.0,0.22563960875000003,9.803215866903717
mp-1183748,Ce3Cd,"[Element Cd, Element Ce]",2,Ce3 Cd1,0.0,-0.05361274062500201,8.021429803169156
mp-1183815,DyAg3,"[Element Ag, Element Dy]",2,Dy1 Ag3,0.0,-0.21998942916666303,10.09433725044139
mp-1183651,Cd3Te,"[Element Cd, Element Te]",2,Cd3 Te1,0.0,0.029016934999997003,7.370311565531026
mp-1183752,Co3Cu,"[Element Co, Element Cu]",2,Co3 Cu1,0.0,0.11858711624999901,8.964556249616201
mp-1183825,Dy3Zr,"[Element Dy, Element Zr]",2,Dy3 Zr1,0.0,0.09525903000000101,8.309008131144411
mp-1183700,Cr3As,"[Element As, Element Cr]",2,Cr3 As1,0.0,0.11767640062500101,7.7782070776441685
mp-1183944,CsNd3,"[Element Cs, Element Nd]",2,Cs1 Nd3,0.0,0.560115657392241,5.861103074666329
mp-1183869,DyNp3,"[Element Dy, Element Np]",2,Dy1 Np3,0.0,0.6934141459374951,15.34423870034504
mp-1183868,Ce3Cr,"[Element Ce, Element Cr]",2,Ce3 Cr1,0.0,0.324236331249998,8.958741274269007
mp-1184016,CsRb3,"[Element Cs, Element Rb]",2,Cs1 Rb3,0.0,0.045420599461206,1.5904292266112652
mp-1183941,Ce2Mg,"[Element Ce, Element Mg]",2,Ce2 Mg1,0.0,0.117836358888889,5.904230235533794
mp-1183841,DyHo3,"[Element Dy, Element Ho]",2,Dy1 Ho3,0.0,0.044573057500002004,8.76139636360233
mp-1183946,CsPr3,"[Element Cs, Element Pr]",2,Cs1 Pr3,0.0,0.5379043267672401,5.689389445442397
mp-1183858,CeS3,"[Element Ce, Element S]",2,Ce1 S3,0.0,-1.320858668437498,5.138819381869455
mp-1183912,Ce3Eu,"[Element Ce, Element Eu]",2,Ce3 Eu1,0.0,0.20793796124999603,8.326653528161891
mp-1183854,CePm3,"[Element Ce, Element Pm]",2,Ce1 Pm3,0.0,0.08357562812500001,6.942549832804772
mp-1184001,GaCu3,"[Element Cu, Element Ga]",2,Ga1 Cu3,0.0,-0.098120255000001,8.901700557829747
mp-1184018,CuAu3,"[Element Au, Element Cu]",2,Cu1 Au3,0.0,-0.012307605000000001,16.795736348245672
mp-1183949,CsLa3,"[Element Cs, Element La]",2,Cs1 La3,0.0,0.5204075542672401,5.5160389412291995
mp-1183954,CsBa3,"[Element Ba, Element Cs]",2,Cs1 Ba3,0.0,0.159148912586206,3.154620635145225
mp-1184006,GaCo3,"[Element Co, Element Ga]",2,Ga1 Co3,0.0,-0.036259175000001004,9.164799514880405
mp-1184028,Cu3Rh,"[Element Cu, Element Rh]",2,Cu3 Rh1,0.0,0.038867449999999006,10.024943801622976
mp-1183998,Ga3Tc,"[Element Ga, Element Tc]",2,Ga3 Tc1,0.0,-0.060788612499999006,8.771087681539528
mp-1183910,DyPu3,"[Element Dy, Element Pu]",2,Dy1 Pu3,0.0,0.18942914999999502,13.142867001438809
mp-1184031,Ga3Sn,"[Element Ga, Element Sn]",2,Ga3 Sn1,0.0,0.19348049250000002,6.6109394191492665
mp-1183872,Ce3Cu,"[Element Ce, Element Cu]",2,Ce3 Cu1,0.0,0.124652727499999,8.608502884741396
mp-1183875,CePr3,"[Element Ce, Element Pr]",2,Ce1 Pr3,0.0,0.10016762749999901,6.206627472344161
mp-1183958,CsK3,"[Element Cs, Element K]",2,Cs1 K3,0.0,0.0189938496875,1.192070563625155
mp-1183993,GaH3,"[Element Ga, Element H]",2,Ga1 H3,0.0,0.601483931874999,4.53708650412198
mp-1184010,Ga3Te,"[Element Ga, Element Te]",2,Ga3 Te1,0.0,-0.030052689166668003,5.879245216289541
mp-1184013,GaHg3,"[Element Ga, Element Hg]",2,Ga1 Hg3,0.0,0.066584939374997,10.8876910444002
mp-1184019,CsYb3,"[Element Cs, Element Yb]",2,Cs1 Yb3,0.0,0.761830548749998,7.493987372820833
mp-1183838,Ce3Ho,"[Element Ce, Element Ho]",2,Ce3 Ho1,0.0,0.09429760875000001,8.731510857799021
mp-1183850,CeBi3,"[Element Bi, Element Ce]",2,Ce1 Bi3,0.0,-0.498606388750005,10.326511949796357
mp-1184011,Cu3Ag,"[Element Ag, Element Cu]",2,Cu3 Ag1,0.0,0.09037492083333301,9.244210421788912
mp-1184014,GaPb3,"[Element Ga, Element Pb]",2,Ga1 Pb3,0.0,0.10329288999999801,10.081648895326843
mp-1184034,GaNi3,"[Element Ga, Element Ni]",2,Ga1 Ni3,0.0,-0.245426195,9.228167222757005
mp-1184178,Er3Pb,"[Element Er, Element Pb]",2,Er3 Pb1,0.0,-0.24973453749999602,10.516612573068201
mp-1184132,CuSn3,"[Element Cu, Element Sn]",2,Cu1 Sn3,0.0,0.24575988249999903,7.129401605205377
mp-1184186,Er3Ge,"[Element Er, Element Ge]",2,Er3 Ge1,0.0,-0.29350939124999803,9.383689141043362
mp-1184311,Fe3Cu,"[Element Cu, Element Fe]",2,Fe3 Cu1,0.0,0.13227488750000102,8.119464254662665
mp-1184179,Er3P,"[Element Er, Element P]",2,Er3 P1,0.0,-0.44099334782738303,9.15133168499791
mp-1184315,EuS3,"[Element Eu, Element S]",2,Eu1 S3,0.0,-0.9517898167187471,5.303017032983107
mp-1184142,DyU3,"[Element Dy, Element U]",2,Dy1 U3,0.0,0.536941382500003,15.862219859180856
mp-1184054,CuNi3,"[Element Cu, Element Ni]",2,Cu1 Ni3,0.0,0.0430200825,9.297002557231611
mp-1184035,CsSr3,"[Element Cs, Element Sr]",2,Cs1 Sr3,0.0,0.16555663801724302,2.604718721770385
mp-1184141,Dy3Lu,"[Element Dy, Element Lu]",2,Dy3 Lu1,0.0,0.046311929583332,8.879856486568146
mp-1184133,Dy3As,"[Element As, Element Dy]",2,Dy3 As1,0.0,-0.543758914374997,8.99986851040251
mp-1184183,CuGe3,"[Element Cu, Element Ge]",2,Cu1 Ge3,0.0,0.324850239166666,6.718234290243048
mp-1184258,Ga3Sb,"[Element Ga, Element Sb]",2,Ga3 Sb1,0.0,0.03219999875,6.192248930759334
mp-1184265,GaRh3,"[Element Ga, Element Rh]",2,Ga1 Rh3,0.0,-0.320216244374998,11.389067650123362
mp-1184338,Eu3Ti,"[Element Eu, Element Ti]",2,Eu3 Ti1,0.0,0.377470629166666,6.07413961954089
mp-1184198,Eu3Nb,"[Element Eu, Element Nb]",2,Eu3 Nb1,0.0,0.550064306249999,6.737191837356884
mp-1184257,Ga3Ag,"[Element Ag, Element Ga]",2,Ga3 Ag1,0.0,0.12897321625000102,7.519442944329066
mp-1184266,GaSn3,"[Element Ga, Element Sn]",2,Ga1 Sn3,0.0,0.22972115749999802,6.971581579676299
mp-1184327,Eu3V,"[Element Eu, Element V]",2,Eu3 V1,0.0,0.49204782749999504,6.299346052704251
mp-1184326,Eu3Hf,"[Element Eu, Element Hf]",2,Eu3 Hf1,0.0,0.376324975000002,7.681830540889019
mp-1184272,Fe3Au,"[Element Au, Element Fe]",2,Fe3 Au1,0.0,0.14191514500000102,11.154704997984625
mp-1184121,CuRu3,"[Element Cu, Element Ru]",2,Cu1 Ru3,0.0,0.274872782500001,11.218949110779977
mp-1184336,FeIr3,"[Element Fe, Element Ir]",2,Fe1 Ir3,0.0,-0.073084129999996,18.95798036589193
mp-1184177,Er3Sn,"[Element Er, Element Sn]",2,Er3 Sn1,0.0,-0.380368988749998,9.337947015694741
mp-1184185,CuPb3,"[Element Cu, Element Pb]",2,Cu1 Pb3,0.0,0.260976732500004,10.681423573128637
mp-1184268,Ga3Hg,"[Element Ga, Element Hg]",2,Ga3 Hg1,0.0,0.075003838124999,8.139316243171658
mp-1184287,Fe3H,"[Element Fe, Element H]",2,Fe3 H1,0.0,0.569157547187501,7.266444300351986
mp-1184292,Ga3P,"[Element Ga, Element P]",2,Ga3 P1,0.0,0.09346460675595301,5.413991379029196
mp-1184296,Ga3Au,"[Element Au, Element Ga]",2,Ga3 Au1,0.0,-0.036476191874999,9.149983239733652
mp-1184119,CuPd3,"[Element Cu, Element Pd]",2,Cu1 Pd3,0.0,-0.050925034999998,11.189575369032706
mp-1184252,GaSi3,"[Element Ga, Element Si]",2,Ga1 Si3,0.0,0.514813873125,4.017649583477437
mp-1184425,Ga3Pb,"[Element Ga, Element Pb]",2,Ga3 Pb1,0.0,0.09109193937500101,7.568601780058895
mp-1184626,Hf3Be,"[Element Be, Element Hf]",2,Hf3 Be1,0.0,0.10420337375000101,11.864683605647198
mp-1184412,ErNp3,"[Element Er, Element Np]",2,Er1 Np3,0.0,0.6460167159375061,15.720448302087432
mp-1184440,Eu3Re,"[Element Eu, Element Re]",2,Eu3 Re1,0.0,0.584221323749999,9.759243835792345
mp-1184397,Eu3Tc,"[Element Eu, Element Tc]",2,Eu3 Tc1,0.0,0.43778240374999905,8.038803704540387
mp-1184395,Eu3Zr,"[Element Eu, Element Zr]",2,Eu3 Zr1,0.0,0.31720365249999805,6.609328503307676
mp-1184405,Eu3Th,"[Element Eu, Element Th]",2,Eu3 Th1,0.0,0.21929682000000303,7.384981430274069
mp-1184536,GdBi3,"[Element Bi, Element Gd]",2,Gd1 Bi3,0.0,-0.46396490624999104,10.948663480114138
mp-1184414,Eu3Ta,"[Element Eu, Element Ta]",2,Eu3 Ta1,0.0,0.649769239999997,8.786908708046825
mp-1184452,EuHo3,"[Element Eu, Element Ho]",2,Eu1 Ho3,0.0,0.139103832499998,9.240930403982395
mp-1184664,Hf3Ge,"[Element Ge, Element Hf]",2,Hf3 Ge1,0.0,-0.29942763875001005,12.413418079985437
mp-1184357,EuAg3,"[Element Ag, Element Eu]",2,Eu1 Ag3,0.0,-0.14997578250000002,8.434447105760697
mp-1184633,Hf3Sn,"[Element Hf, Element Sn]",2,Hf3 Sn1,0.0,-0.272865980000005,12.53159671319021
mp-1184493,In3Ag,"[Element Ag, Element In]",2,In3 Ag1,0.0,0.03548717923611,7.693681417804325
mp-1184632,Hf3Hg,"[Element Hf, Element Hg]",2,Hf3 Hg1,0.0,-0.044177324375006,14.514813181270696
mp-1184695,Ho3Er,"[Element Er, Element Ho]",2,Ho3 Er1,0.0,0.05061995291666901,8.889746979532562
mp-1184665,Ge3O,"[Element Ge, Element O]",2,Ge3 O1,0.0,0.08172090999999901,5.866150745205513
mp-1184646,Ge3Au,"[Element Au, Element Ge]",2,Ge3 Au1,0.0,0.238464141249998,8.787229960790292
mp-1184538,GdY3,"[Element Gd, Element Y]",2,Gd1 Y3,0.0,0.088701557499998,5.206706238964778
mp-1184656,HPd3,"[Element H, Element Pd]",2,H1 Pd3,0.0,0.47766776531249905,9.76451066779384
mp-1184671,Ge3Mo,"[Element Ge, Element Mo]",2,Ge3 Mo1,0.0,0.437787760625003,7.716844296559778
mp-1184694,HfBi3,"[Element Bi, Element Hf]",2,Hf1 Bi3,0.0,0.16827389166665702,11.844725805014686
mp-1184498,Gd3Ho,"[Element Gd, Element Ho]",2,Gd3 Ho1,0.0,0.10348230875001001,8.106390848261888
mp-1184658,HgPd3,"[Element Hg, Element Pd]",2,Hg1 Pd3,0.0,-0.135616335624999,13.286932514291388
mp-1184457,Eu3W,"[Element Eu, Element W]",2,Eu3 W1,0.0,0.749119745000001,9.15446272782945
mp-1184439,EuY3,"[Element Eu, Element Y]",2,Eu1 Y3,0.0,0.08772298249999701,5.08392600779817
mp-1184679,HgBi3,"[Element Bi, Element Hg]",2,Hg1 Bi3,0.0,0.105880123749997,11.360708059231724
mp-1184608,Hg3Pt,"[Element Hg, Element Pt]",2,Hg3 Pt1,0.0,0.15282212875001,16.158773588612508
mp-1184650,Hf3Ga,"[Element Ga, Element Hf]",2,Hf3 Ga1,0.0,-0.277779581250008,12.37535507494231
mp-1184375,EuAu3,"[Element Au, Element Eu]",2,Eu1 Au3,0.0,-0.52831075625,13.956716174969971
mp-1184438,Eu3Mo,"[Element Eu, Element Mo]",2,Eu3 Mo1,0.0,0.6897689675,7.344297458481429
mp-1184704,HfCu3,"[Element Cu, Element Hf]",2,Hf1 Cu3,0.0,-0.089767235,10.779168927093231
mp-1184710,Ho3As,"[Element As, Element Ho]",2,Ho3 As1,0.0,-0.5390935893749961,9.199832799998434
mp-1184882,K3Al,"[Element Al, Element K]",2,K3 Al1,0.0,0.30760282525000004,1.2799581743289021
mp-1184781,InGe3,"[Element Ge, Element In]",2,In1 Ge3,0.0,0.27797031875,6.301116567996549
mp-1184925,K3Cr,"[Element Cr, Element K]",2,K3 Cr1,0.0,0.6736333402500001,1.390930383223927