material_id,formula_pretty,elements,nelements,composition,band_gap,formation_energy_per_atom,density
mp-1188302,Pr5Pb3,"[Element Pb, Element Pr]",2,Pr10 Pb6,0.0,-0.70575996854167,8.150139480979137
mp-1189141,Ho5Pt3,"[Element Ho, Element Pt]",2,Ho10 Pt6,0.0,-1.134693241354163,12.386934029174693
mp-1188434,Y5Tl3,"[Element Tl, Element Y]",2,Y10 Tl6,0.0,-0.471177748125001,7.478510927766152
mp-1188498,Nd5Si3,"[Element Nd, Element Si]",2,Nd10 Si6,0.0,-0.6532806184374991,5.965125292087384
mp-1188310,Tm5Ge3,"[Element Ge, Element Tm]",2,Tm10 Ge6,0.0,-0.797719528125004,9.378668509024248
mp-1188336,Zr5Ga4,"[Element Ga, Element Zr]",2,Zr10 Ga8,0.0,-0.6213666777777791,6.98107697861496
mp-1189366,La5Si3,"[Element La, Element Si]",2,La10 Si6,0.0,-0.625637028749999,5.4141706105779015
mp-1188417,Ho5In3,"[Element Ho, Element In]",2,Ho10 In6,0.0,-0.33644597187499503,8.521703711485216
mp-1188644,Lu5In3,"[Element In, Element Lu]",2,Lu10 In6,0.0,-0.454571229583336,9.156272212187899
mp-1188992,Sm5Ge3,"[Element Ge, Element Sm]",2,Sm10 Ge6,0.0,-0.7402710062500001,7.3544692932493625
mp-1188653,Dy5Rh3,"[Element Dy, Element Rh]",2,Dy10 Rh6,0.0,-0.710030191666662,9.952465737090355
mp-1188658,Tm5Ga3,"[Element Ga, Element Tm]",2,Tm10 Ga6,0.0,-0.577865940000002,8.889718060432195
mp-1189223,Lu5Ga3,"[Element Ga, Element Lu]",2,Lu10 Ga6,0.0,-0.5804013372916651,9.453583706842666
mp-1189518,Tm5Pb3,"[Element Pb, Element Tm]",2,Tm10 Pb6,0.0,-0.492149233749999,10.973935425977244
mp-1188605,V5P3,"[Element P, Element V]",2,V10 P6,0.0,-0.8261550442410691,5.8209675370471174
mp-1188373,Si3Mo5,"[Element Mo, Element Si]",2,Si6 Mo10,0.0,-0.304460348125005,7.964820015941874
mp-1188996,Ce5Bi3,"[Element Bi, Element Ce]",2,Ce10 Bi6,0.0,-0.8668511484375041,8.644882262356482
mp-1188779,Nd5Sb3,"[Element Nd, Element Sb]",2,Nd10 Sb6,0.0,-1.131842134062498,7.301100348820231
mp-1188649,Tb5Ir3,"[Element Ir, Element Tb]",2,Tb10 Ir6,0.0,-0.73708395135416,12.166610900755519
mp-1188632,Tm5In3,"[Element In, Element Tm]",2,Tm10 In6,0.0,-0.47355983187499706,8.741291363373236
mp-1188813,Ge3Mo5,"[Element Ge, Element Mo]",2,Ge6 Mo10,0.0,-0.012206746874998,9.326724826250171
mp-1189039,Er5In3,"[Element Er, Element In]",2,Er10 In6,0.0,-0.49179336958333403,8.737985029340331
mp-1188697,Zr5Ir3,"[Element Ir, Element Zr]",2,Zr10 Ir6,0.0,-0.847199975625002,11.089565693434308
mp-1188469,La5Ge3,"[Element Ge, Element La]",2,La10 Ge6,0.0,-0.820686564999999,6.181480998489194
mp-1188517,Eu5Bi3,"[Element Bi, Element Eu]",2,Eu10 Bi6,0.0,-1.049960910625003,8.055538269703717
mp-1188575,Sm5Bi3,"[Element Bi, Element Sm]",2,Sm10 Bi6,0.0,-0.9039338006249971,9.254801960662132
mp-1189399,Dy5Sb3,"[Element Dy, Element Sb]",2,Dy10 Sb6,0.0,-0.9831916554166621,8.861625178722925
mp-1189573,Hf5Ir3,"[Element Hf, Element Ir]",2,Hf10 Ir6,0.0,-0.8107171160416741,16.314557961197533
mp-1188953,Zr5Pt3,"[Element Pt, Element Zr]",2,Zr10 Pt6,0.0,-0.9236079306250031,10.700655917109595
mp-1188999,Ce5Sb3,"[Element Ce, Element Sb]",2,Ce10 Sb6,0.0,-1.071087669374996,7.46271119527572
mp-1189210,Tm5Sn3,"[Element Sn, Element Tm]",2,Tm10 Sn6,0.0,-0.691902048125004,9.120145959470456
mp-1189138,Y5Sb3,"[Element Sb, Element Y]",2,Y10 Sb6,0.0,-1.0839009074999981,6.074493922504161
mp-1189119,Y5Ir3,"[Element Ir, Element Y]",2,Y10 Ir6,0.0,-0.712393345625,8.98835147106936
mp-1189245,Tm5Rh3,"[Element Rh, Element Tm]",2,Tm10 Rh6,0.0,-0.777744898125003,10.674587946148034
mp-1189848,Tb5Bi3,"[Element Bi, Element Tb]",2,Tb10 Bi6,0.0,-0.8493574500000061,10.101394102495103
mp-1190067,Er5Pt3,"[Element Er, Element Pt]",2,Er10 Pt6,0.0,-1.140707135416669,12.785507724327063
mp-12467,Ca5Sb3,"[Element Ca, Element Sb]",2,Ca10 Sb6,0.0,-1.046378150624999,3.773360211040384
mp-1189863,Tm5Si3,"[Element Si, Element Tm]",2,Tm10 Si6,0.0,-0.7893272843750011,8.345907203018399
mp-1189687,Pr5Sn3,"[Element Pr, Element Sn]",2,Pr10 Sn6,0.0,-0.668623951041665,6.666862187357834
mp-1190256,Pr5Sb3,"[Element Pr, Element Sb]",2,Pr10 Sb6,0.0,-1.122030110416663,7.006148751659894
mp-11908,Lu5Si3,"[Element Lu, Element Si]",2,Lu10 Si6,0.0,-0.784980069791664,8.909993429442192
mp-1190342,Lu5Pt3,"[Element Lu, Element Pt]",2,Lu10 Pt6,0.0,-1.182565592291666,13.80276113169217
mp-1208252,Ti5As3,"[Element As, Element Ti]",2,Ti10 As6,0.0,-0.9761992552291681,5.992052607267134
mp-1190038,Tm5Tl3,"[Element Tl, Element Tm]",2,Tm10 Tl6,0.0,-0.42228418250000005,10.999415429770393
mp-1190312,Ce5Pb3,"[Element Ce, Element Pb]",2,Ce10 Pb6,0.0,-0.329514458749996,8.655205197546882
mp-1207579,Yb5As3,"[Element As, Element Yb]",2,Yb10 As6,0.0,-1.1978214071875,10.214921477379646
mp-1190212,Yb5Pt3,"[Element Pt, Element Yb]",2,Yb10 Pt6,0.0,-1.183628519374998,13.511032716320017
mp-1205299,TcBr3,"[Element Br, Element Tc]",2,Tc2 Br6,0.0,-0.783906091874997,4.638779836820836
mp-1208004,Tm5Ir3,"[Element Ir, Element Tm]",2,Tm10 Ir6,0.0,-0.834576293125005,13.371487748677728
mp-1210556,Lu5In4,"[Element In, Element Lu]",2,Lu10 In8,0.0,-0.509848586481477,9.623265905308546
mp-1189800,Yb5Ir3,"[Element Ir, Element Yb]",2,Yb10 Ir6,0.0,-0.972457939375004,13.735801364443292
mp-1189839,Dy5Pt3,"[Element Dy, Element Pt]",2,Dy10 Pt6,0.0,-1.106603239374997,12.324215574136327
mp-1190304,V5Ga3,"[Element Ga, Element V]",2,V10 Ga6,0.0,-0.162618286111111,6.711436911592945
mp-1209003,Sc5Ru3,"[Element Ru, Element Sc]",2,Sc10 Ru6,0.0,-0.456239408124999,5.718322763232915
mp-1189715,Er5Ir3,"[Element Er, Element Ir]",2,Er10 Ir6,0.0,-0.8237828931249981,12.858672724982226
mp-1191364,WO3,"[Element O, Element W]",2,W6 O18,1.2648000000000001,-2.180178068333332,6.364890166441476
mp-1207950,U5Sb4,"[Element Sb, Element U]",2,U10 Sb8,0.0,-0.39953427277777104,12.079243601176914
mp-1208285,Th5Tl3,"[Element Th, Element Tl]",2,Th10 Tl6,0.0,-0.13434943000000002,11.678166167118718
mp-12960,Er5Sb3,"[Element Er, Element Sb]",2,Er10 Sb6,0.0,-1.007606152083333,9.413180738151498
mp-1190343,Er5Pb3,"[Element Er, Element Pb]",2,Er10 Pb6,0.0,-0.5127006956249971,10.490320351088732
mp-1208157,U5Sn4,"[Element Sn, Element U]",2,U10 Sn8,0.0,0.10518714000000401,11.788913403578022
mp-1189874,Sm5Sn3,"[Element Sm, Element Sn]",2,Sm10 Sn6,0.0,-0.7080045381250021,7.4940183649251395
mp-1205355,MoBr3,"[Element Br, Element Mo]",2,Mo2 Br6,0.0,-0.96736644875,3.7581664046212833
mp-1190215,Sc5Si3,"[Element Sc, Element Si]",2,Sc10 Si6,0.0,-0.319648032499999,3.038162343067886
mp-1208206,Tm5In4,"[Element In, Element Tm]",2,Tm10 In8,0.0,-0.5379580688888831,9.168969185028182
mp-1208237,Ti5Mn3,"[Element Mn, Element Ti]",2,Ti10 Mn6,0.0,-0.051535743182471005,5.732289919624812
mp-1207392,Zr5Bi3,"[Element Bi, Element Zr]",2,Zr10 Bi6,0.0,-0.300632984375001,9.237654567650122
mp-17751,Y5Ge3,"[Element Ge, Element Y]",2,Y10 Ge6,0.0,-0.9292755918750011,5.463951234305606
mp-1739,Hf5Ge3,"[Element Ge, Element Hf]",2,Hf10 Ge6,0.0,-0.7400822718749961,12.21681834487185
mp-17013,Ta5Ge3,"[Element Ge, Element Ta]",2,Ta10 Ge6,0.0,-0.322289284583334,13.74287121541078
mp-1642,Ta5N6,"[Element N, Element Ta]",2,Ta10 N12,0.0,-1.311067269924241,13.479929692001054
mp-17171,LaF3,"[Element F, Element La]",2,La6 F18,4.9199,-4.363965140416666,5.966362382443793
mp-13236,Ho5Si3,"[Element Ho, Element Si]",2,Ho10 Si6,0.0,-0.7807739637500001,7.8652951577349075
mp-17124,Pr5Ge3,"[Element Ge, Element Pr]",2,Pr10 Ge6,0.0,-0.7900635235416651,6.541799684364569
mp-17906,PrF3,"[Element F, Element Pr]",2,Pr6 F18,5.4564,-4.273104059999998,6.224215108530152
mp-17695,Sc5Sn3,"[Element Sc, Element Sn]",2,Sc10 Sn6,0.0,-0.746893971249999,5.130054601694165
mp-1464,Nd5Ge3,"[Element Ge, Element Nd]",2,Nd10 Ge6,0.0,-0.8231713596874961,6.856775187851785
mp-15698,Sr5As3,"[Element As, Element Sr]",2,Sr10 As6,0.0,-1.2492793440625,4.307821284225516
mp-1465,Nd5Ge3,"[Element Ge, Element Nd]",2,Nd10 Ge6,0.0,-0.548017640937494,6.676544485816877
mp-15965,Hf5Si3,"[Element Hf, Element Si]",2,Hf10 Si6,0.0,-0.7861504581250031,11.097807305118911
mp-16230,Tb5Sb3,"[Element Sb, Element Tb]",2,Tb10 Sb6,0.0,-1.088051921249999,8.67590867716672
mp-17910,Nb5Ge3,"[Element Ge, Element Nb]",2,Nb10 Ge6,0.0,-0.41763046625000105,8.211623986654724
mp-18690,SmF3,"[Element F, Element Sm]",2,Sm6 F18,5.4407,-4.259454267291666,6.896002657652099
mp-17332,Sc5Ga3,"[Element Ga, Element Sc]",2,Sc10 Ga6,0.0,-0.5810035168749981,4.272617052685319
mp-17706,Zr5Ge3,"[Element Ge, Element Zr]",2,Zr10 Ge6,0.0,-0.8784664887500031,7.049822348917964
mp-18074,NdF3,"[Element F, Element Nd]",2,Nd6 F18,5.4439,-4.212732322291664,6.461803972468154
mp-17190,Sc5Ge3,"[Element Ge, Element Sc]",2,Sc10 Ge6,0.0,-0.909267095,4.551170037485688
mp-18032,Nb5Ga4,"[Element Ga, Element Nb]",2,Nb10 Ga8,0.0,-0.41783721055555606,8.21440906822583
mp-1812,Hg5Au6,"[Element Au, Element Hg]",2,Hg10 Au12,0.0,-0.001952477500005,16.085057817188595
mp-20847,Ti5Sn3,"[Element Sn, Element Ti]",2,Ti10 Sn6,0.0,-0.381651281666666,6.504128194889782
mp-2044,Zr5Al3,"[Element Al, Element Zr]",2,Zr10 Al6,0.0,-0.400025199124996,5.336250244820557
mp-2361,Hf5Al3,"[Element Al, Element Hf]",2,Hf10 Al6,0.0,-0.34032690062499704,10.084054373919146
mp-206,Tb5Si3,"[Element Si, Element Tb]",2,Tb10 Si6,0.0,-0.7691735312500001,7.321135246828594
mp-2585,Sr5Sb3,"[Element Sb, Element Sr]",2,Sr10 Sb6,0.0,-1.067041795625,4.510835704546249
mp-21104,Hf5Sn3,"[Element Hf, Element Sn]",2,Hf10 Sn6,0.0,-0.42706483374999404,11.90808988596708
mp-2836,Dy5Si3,"[Element Dy, Element Si]",2,Dy10 Si6,0.0,-0.776258386874999,7.616988353406563
mp-2018487,Ba5Ga6,"[Element Ba, Element Ga]",2,Ba10 Ga12,0.0,-0.467605253636365,4.787994844348707
mp-20916,V5Ge3,"[Element Ge, Element V]",2,V10 Ge6,0.0,-0.31226512562500003,6.940173549009883
mp-2649,Zr5Sb3,"[Element Sb, Element Zr]",2,Zr10 Sb6,0.0,-0.7659680518749991,7.549211653643585
mp-23223,TiI3,"[Element I, Element Ti]",2,Ti2 I6,0.0,-1.077977660833336,4.602452346125466
mp-2610,Tb5Ge3,"[Element Ge, Element Tb]",2,Tb10 Ge6,0.0,-0.917368340625,8.30838733182918
mp-29621,Ba5Bi3,"[Element Ba, Element Bi]",2,Ba10 Bi6,0.0,-0.8955071224999981,5.956383392494535
mp-22850,RuCl3,"[Element Cl, Element Ru]",2,Ru4 Cl12,0.0,-1.00512590625,3.614716092999538
mp-2538,Y5Si3,"[Element Si, Element Y]",2,Y10 Si6,0.0,-0.7842043937500001,4.433818011984902
mp-2108,Ti5Si3,"[Element Si, Element Ti]",2,Ti10 Si6,0.0,-0.789528400416667,4.374481682676191
mp-201,Yb5Sb3,"[Element Sb, Element Yb]",2,Yb10 Sb6,0.0,-0.972330813124997,9.91619674690675
mp-23247,ZrBr3,"[Element Br, Element Zr]",2,Zr2 Br6,0.0,-1.7991298112499972,4.220439039739258
mp-30407,Mg13Au41,"[Element Au, Element Mg]",2,Mg26 Au82,0.0,-0.38610330175925806,14.411605649375447
mp-22892,RuBr3,"[Element Br, Element Ru]",2,Ru2 Br6,0.0,-0.723299693749999,5.035500248771838
mp-29620,Sr5Bi3,"[Element Bi, Element Sr]",2,Sr10 Bi6,0.0,-1.042344969375001,5.692137308111214
mp-22871,ZrCl3,"[Element Cl, Element Zr]",2,Zr2 Cl6,0.0,-1.949523499375001,2.932578623657994
mp-22337,Hf5Ga3,"[Element Ga, Element Hf]",2,Hf10 Ga6,0.0,-0.5180995300000001,11.795978815340264
mp-2681,Ho5Sb3,"[Element Ho, Element Sb]",2,Ho10 Sb6,0.0,-1.038638835624997,9.184561425509884
mp-23282,ZrI3,"[Element I, Element Zr]",2,Zr2 I6,0.0,-1.242679807499998,4.90259975351804
mp-30623,Dy5Sn3,"[Element Dy, Element Sn]",2,Dy10 Sn6,0.0,-0.712904919791663,8.570783489587978
mp-30734,Ho5Rh3,"[Element Ho, Element Rh]",2,Ho10 Rh6,0.0,-0.7268013762499941,10.40367754527027
mp-30668,Ta5Ga3,"[Element Ga, Element Ta]",2,Ta10 Ga6,0.0,-0.23880907662500303,13.49373202948427
mp-505302,U5Ge4,"[Element Ge, Element U]",2,U10 Ge8,0.0,-0.24669503980554602,13.25348519015251
mp-30730,Ho5Pb3,"[Element Ho, Element Pb]",2,Ho10 Pb6,0.0,-0.516900874999993,10.500452862044444
mp-31167,Er5Si3,"[Element Er, Element Si]",2,Er10 Si6,0.0,-0.7782292927083351,8.124794737290735
mp-32777,WO3,"[Element O, Element W]",2,W6 O18,1.208699999999999,-2.180437679999999,6.130679084404521
mp-34761,Ta5N6,"[Element N, Element Ta]",2,Ta10 N12,0.0,-0.478852307878789,13.462078086047656
mp-505692,Np5Ge4,"[Element Ge, Element Np]",2,Np10 Ge8,0.0,0.186798526435173,14.001634215060811
mp-510262,Cs3O,"[Element Cs, Element O]",2,Cs6 O2,0.0,-0.9187472859913781,2.695238305760666
mp-510493,Ce5Ge3,"[Element Ce, Element Ge]",2,Ce10 Ge6,0.0,-0.596005639999997,7.147362955856197
mp-30674,Ti5Ga3,"[Element Ga, Element Ti]",2,Ti10 Ga6,0.0,-0.408465628020833,5.651243176587454
mp-31385,Er5Sn3,"[Element Er, Element Sn]",2,Er10 Sn6,0.0,-0.7085839299999991,9.051860096176254
mp-510209,Sc5Pb3,"[Element Pb, Element Sc]",2,Sc10 Pb6,0.0,-0.585987211875,7.217606606434112
mp-30874,Th5Sn4,"[Element Sn, Element Th]",2,Th10 Sn8,0.0,-0.6680491844444411,10.084655315246652
mp-30675,Ti5Ga4,"[Element Ga, Element Ti]",2,Ti10 Ga8,0.0,-0.43971222462962906,5.97448889833296
mp-30879,Tb5Tl3,"[Element Tb, Element Tl]",2,Tb10 Tl6,0.0,-0.29478368604166705,9.953871962919703
mp-30735,Ho5Sn3,"[Element Ho, Element Sn]",2,Ho10 Sn6,0.0,-0.705871321874996,8.81207666018572
mp-30873,Th5Sn3,"[Element Sn, Element Th]",2,Th10 Sn6,0.0,-0.5672089462499981,10.030431451835726
mp-449,Fe5Si3,"[Element Fe, Element Si]",2,Fe10 Si6,0.0,-0.356045398749999,6.6291443748703465
mp-557211,SiO2,"[Element O, Element Si]",2,Si24 O48,5.5612,-3.253923577916668,1.651553275056509
mp-568115,Zr5Si3,"[Element Si, Element Zr]",2,Zr10 Si6,0.0,-0.8719251650000001,5.821787089608301
mp-567871,Nb5Si3,"[Element Nb, Element Si]",2,Nb10 Si6,0.0,-0.6232783687499961,6.8965289877926885
mp-571143,TiCl3,"[Element Cl, Element Ti]",2,Ti2 Cl6,0.0,-1.791129423541667,2.56158174828268
mp-570483,V5Si3,"[Element Si, Element V]",2,V10 Si6,0.0,-0.5657171093749991,5.347908926712606
mp-570722,NbI3,"[Element I, Element Nb]",2,Nb2 I6,0.0,-0.741899572500002,4.946776543242299
mp-510521,Y5Ga3,"[Element Ga, Element Y]",2,Y10 Ga6,0.0,-0.479652680312499,5.111440912441742
mp-568002,HfI3,"[Element Hf, Element I]",2,Hf2 I6,0.0,-1.164490951249999,5.696818635173169
mp-568151,Ti5Ge3,"[Element Ge, Element Ti]",2,Ti10 Ge6,0.0,-0.7418544810416651,5.9176295544645825
mp-510503,Nd5Sn3,"[Element Nd, Element Sn]",2,Nd10 Sn6,0.0,-0.689019435937499,6.959856613828623
mp-567412,Y5Sn3,"[Element Sn, Element Y]",2,Y10 Sn6,0.0,-0.7434176368750011,5.801945225909033
mp-570816,Ho5Ga3,"[Element Ga, Element Ho]",2,Ho10 Ga6,0.0,-0.46380489843749506,8.386947283178321
mp-681992,Zr5Pb3,"[Element Pb, Element Zr]",2,Zr10 Pb6,0.0,-0.37525825500000504,9.462742645616414
mp-554032,Ti3O,"[Element O, Element Ti]",2,Ti6 O2,0.0,-1.461911465,4.741277982385064
mp-7234,Nb5N6,"[Element N, Element Nb]",2,Nb10 N12,0.0,-1.178245385227272,7.277038930099967
mp-569760,Dy5Pb3,"[Element Dy, Element Pb]",2,Dy10 Pb6,0.0,-0.528957778541662,10.24577513346346
mp-510691,Hf5Sn4,"[Element Hf, Element Sn]",2,Hf10 Sn8,0.0,-0.43733000055555504,11.734523715364956
mp-510522,Zr5Sn3,"[Element Sn, Element Zr]",2,Zr10 Sn6,0.0,-0.640402145625,7.394984712185407
mp-570196,Zr5Sb4,"[Element Sb, Element Zr]",2,Zr10 Sb8,0.0,-0.7697531511111131,7.817054917445075
mp-622345,U5Ge3,"[Element Ge, Element U]",2,U10 Ge6,0.0,-0.023577594249999,13.4987758544832
mp-569915,Er5Rh3,"[Element Er, Element Rh]",2,Er10 Rh6,0.0,-0.7577131599999991,10.669499235300057
mp-669556,Pu5Pt3,"[Element Pt, Element Pu]",2,Pu10 Pt6,0.0,-0.28894608796874,15.836023378377089
mp-617291,Mn5Ge3,"[Element Ge, Element Mn]",2,Mn10 Ge6,0.0,-0.10672375995689601,7.289238541347574
mp-543001,Zr5Sn4,"[Element Sn, Element Zr]",2,Zr10 Sn8,0.0,-0.6570043188888891,7.692895387546717
mp-570774,Zr5Al4,"[Element Al, Element Zr]",2,Zr10 Al8,0.0,-0.462321123888888,5.244055011444076
mp-9909,Ba5Sb3,"[Element Ba, Element Sb]",2,Ba10 Sb6,0.0,-1.068958458125001,4.974116290626551
mp-7822,Sc5Si3,"[Element Sc, Element Si]",2,Sc10 Si6,0.0,-0.7977898131250001,3.252798522375358
mp-865778,Lu5Rh3,"[Element Lu, Element Rh]",2,Lu10 Rh6,0.0,-0.8562939191666671,11.445089524562821
mp-980757,Sm5Sb3,"[Element Sb, Element Sm]",2,Sm10 Sb6,0.0,-1.121722890000001,7.861293902903404
mp-972463,Tm5Sb3,"[Element Sb, Element Tm]",2,Tm10 Sb6,0.0,-0.991332007500002,9.607758887473475
mp-10027,TiSe,"[Element Se, Element Ti]",2,Ti2 Se2,0.0,-1.098326852838542,5.924945168521415
mp-1005761,SmGd3,"[Element Gd, Element Sm]",2,Sm2 Gd6,0.0,0.002222463750001,7.524009124903856
mp-10026,ScTe,"[Element Sc, Element Te]",2,Sc2 Te2,0.0,-1.388611533333332,5.546529536829515
mp-1008500,BaO,"[Element Ba, Element O]",2,Ba2 O2,2.3602,-2.804754410000002,6.059770600663804
mp-10033,NbS2,"[Element Nb, Element S]",2,Nb2 S4,0.0,-1.348540539999998,4.203264240289562
mp-1005762,Sm3Au,"[Element Au, Element Sm]",2,Sm6 Au2,0.0,-0.236851607500001,9.565517657083806
mp-1001835,LiB,"[Element B, Element Li]",2,Li2 B2,0.0,-0.22468806208333303,1.3678437666054601
mp-10000,Hf2S,"[Element Hf, Element S]",2,Hf4 S2,0.0,-1.171399257604169,11.182943515494184
mp-1005760,Tl3Os,"[Element Os, Element Tl]",2,Tl6 Os2,0.0,0.9730430762500001,14.420421983770142
mp-1007824,GaN,"[Element Ga, Element N]",2,Ga2 N2,0.9819,-0.31649339937500004,3.6898693122383213
mp-1007906,ErH,"[Element Er, Element H]",2,Er2 H2,0.0,-0.42906371520833203,9.265121487212706
mp-10009,GaTe,"[Element Ga, Element Te]",2,Ga4 Te4,0.7852999999999991,-0.438633351249999,5.154975029515741
mp-1008483,CdN,"[Element Cd, Element N]",2,Cd2 N2,0.0,0.9604628524999991,7.3767160897126125
mp-1005752,Sm3In,"[Element In, Element Sm]",2,Sm6 In2,0.0,-0.360318046249999,7.842121434703104
mp-1006258,ErPu3,"[Element Er, Element Pu]",2,Er2 Pu6,0.0,0.188007260000006,13.386717904875375
mp-1006323,CeLu3,"[Element Ce, Element Lu]",2,Ce2 Lu6,0.0,0.024845188749999,9.081847977751528
mp-1006351,CeY3,"[Element Ce, Element Y]",2,Ce2 Y6,0.0,0.07523220999999901,5.280881479698365
mp-1005895,Sm3Gd,"[Element Gd, Element Sm]",2,Sm6 Gd2,0.0,0.635473080000004,7.348726494722356
mp-1006127,Pa3Mo,"[Element Mo, Element Pa]",2,Pa6 Mo2,0.0,0.211592862499998,14.396252904020763
mp-1006164,PmPu3,"[Element Pm, Element Pu]",2,Pm2 Pu6,0.0,0.22700764687499403,12.525999276763624
mp-1006132,Hf3Pb,"[Element Hf, Element Pb]",2,Hf6 Pb2,0.0,-0.039817422500007006,14.023181635251717
mp-1006059,Tl3Bi,"[Element Bi, Element Tl]",2,Tl6 Bi2,0.0,-0.032464058750001,10.674242340548613
mp-1007992,CrH,"[Element Cr, Element H]",2,Cr2 H2,0.0,0.36593377250000003,6.062370192503156
mp-10052,TiAs,"[Element As, Element Ti]",2,Ti2 As2,0.0,-1.042840459583333,5.771725326145742
mp-1008488,BiPd,"[Element Bi, Element Pd]",2,Bi2 Pd2,0.0,-0.299458342500003,11.583007141312558
mp-1007761,HW,"[Element H, Element W]",2,H2 W2,0.0,0.161137274374997,17.105836889719654
mp-1008524,BeSe,"[Element Be, Element Se]",2,Be2 Se2,0.44880000000000003,-0.530352283671875,4.895392751548033
mp-1017532,VN,"[Element N, Element V]",2,V2 N2,0.0,-1.244566076874999,6.183225406111574
mp-1014246,ZrB,"[Element B, Element Zr]",2,Zr2 B2,0.0,-0.47043178250000006,5.7148123897321135
mp-10125,SbIr,"[Element Ir, Element Sb]",2,Sb2 Ir2,0.0,-0.258439013749999,13.028018461297666
mp-1015,ZrMn2,"[Element Mn, Element Zr]",2,Zr8 Mn16,0.0,-0.183857434454021,6.484254170177978
mp-1014,ZrMn2,"[Element Mn, Element Zr]",2,Zr4 Mn8,0.0,-0.185062456120687,6.480217166723682
mp-1017530,VH,"[Element H, Element V]",2,V2 H2,0.0,0.08630026395833201,5.393343919991297
mp-1017533,YN,"[Element N, Element Y]",2,Y2 N2,0.20590000000000003,-1.644492254374999,5.599301888732408
mp-1018850,OsC2,"[Element C, Element Os]",2,Os2 C4,0.046400000000000004,0.579757141666666,12.411954393193259
mp-1013525,VS2,"[Element S, Element V]",2,V2 S4,0.0,-1.200986238333333,3.437684959175288
mp-1014307,ZrC,"[Element C, Element Zr]",2,Zr2 C2,0.0,-0.8451349225000011,6.506336928354035
mp-1017546,ZrN,"[Element N, Element Zr]",2,Zr2 N2,0.0,-1.632320264375003,6.831220122481746
mp-1018716,HfN2,"[Element Hf, Element N]",2,Hf2 N4,0.5762,-1.078429581666666,9.814457986737807
mp-1018796,Mg2Si,"[Element Mg, Element Si]",2,Mg4 Si2,0.0,0.051431958333332,2.2602467395617483
mp-1018807,MoSe2,"[Element Mo, Element Se]",2,Mo2 Se4,1.254399999999999,-0.746611449375,6.332386274281625
mp-1018659,CeO2,"[Element Ce, Element O]",2,Ce2 O4,0.8878,-3.497729721666665,7.540652935941741
mp-1018794,Mg2Ge,"[Element Ge, Element Mg]",2,Mg4 Ge2,0.0,-0.19108322833333402,3.39781623032587
mp-1018809,MoS2,"[Element Mo, Element S]",2,Mo2 S4,1.3361,-0.963753305208333,4.5904816488390665