material_id,formula_pretty,elements,nelements,composition,band_gap,formation_energy_per_atom,density
mp-1023933,WSe2,"[Element Se, Element W]",2,W2 Se4,1.5241,-0.595456302708332,4.9465919236726705
mp-1023939,MoS2,"[Element Mo, Element S]",2,Mo2 S4,1.5539,-0.958906750208332,2.793155399236568
mp-1062310,LuCd2,"[Element Cd, Element Lu]",2,Lu1 Cd2,0.0,-0.311065958888884,9.231614288689267
mp-1028586,Te2W,"[Element Te, Element W]",2,Te8 W4,1.2142,-0.07784328166666801,6.753827595256743
mp-1039309,Mg2Cd,"[Element Cd, Element Mg]",2,Mg4 Cd2,0.0,0.03975381,3.94444315966171
mp-1057,Al3Ni2,"[Element Al, Element Ni]",2,Al3 Ni2,0.0,-0.644216627999999,4.883766094782531
mp-1062228,CaO2,"[Element Ca, Element O]",2,Ca1 O2,0.0,-1.712196286666666,2.852573007112785
mp-1061855,DyHg2,"[Element Dy, Element Hg]",2,Dy1 Hg2,0.0,-0.16203015166666002,10.931304236124781
mp-1062935,LaHg2,"[Element Hg, Element La]",2,La1 Hg2,0.0,-0.576227493333334,11.094220987902027
mp-1062206,NdCd2,"[Element Cd, Element Nd]",2,Nd1 Cd2,0.0,0.115540524166668,6.7806691998515785
mp-1039090,Ce2Mg,"[Element Ce, Element Mg]",2,Ce4 Mg2,0.0,0.045754960555555,6.477111133894991
mp-1025044,AlNi2,"[Element Al, Element Ni]",2,Al2 Ni4,0.0,-0.490064431666665,7.148100740005991
mp-1027525,MoS2,"[Element Mo, Element S]",2,Mo4 S8,1.463999999999999,-0.9624610102083341,3.512864135007714
mp-1030319,Te2Mo,"[Element Mo, Element Te]",2,Te8 Mo4,1.1635,-0.301468154166665,5.445842533414322
mp-1023940,MoSe2,"[Element Mo, Element Se]",2,Mo2 Se4,1.424799999999999,-0.7420059710416681,3.8554099100798913
mp-1039120,CaMg,"[Element Ca, Element Mg]",2,Ca2 Mg2,0.0,0.07150135624999801,1.646879148093967
mp-1024087,Zr63S128,"[Element S, Element Zr]",2,Zr63 S128,0.0,-1.8074487296335071,3.459885382118344
mp-1038991,CaMg2,"[Element Ca, Element Mg]",2,Ca2 Mg4,0.0,0.09347657499999901,1.6968988780117842
mp-1039462,Ca2Mg,"[Element Ca, Element Mg]",2,Ca4 Mg2,0.0,0.066856125833333,1.594886252986924
mp-1039083,CeMg,"[Element Ce, Element Mg]",2,Ce2 Mg2,0.0,0.036880124999999,5.553496035476006
mp-10228,NbSe2,"[Element Nb, Element Se]",2,Nb1 Se2,0.0,-0.931772326041667,5.951284779129697
mp-1064427,GdBr,"[Element Br, Element Gd]",2,Gd2 Br2,0.0,-1.482158677499997,6.046235016828613
mp-10733,Sm2O3,"[Element O, Element Sm]",2,Sm2 O3,3.9371,-3.844915249500001,7.880389543347195
mp-1079408,Li5In4,"[Element In, Element Li]",2,Li5 In4,0.0,-0.38757083148147903,4.754285715933746
mp-1070275,Al3Tc2,"[Element Al, Element Tc]",2,Al3 Tc2,0.0,-0.20712806933333003,5.464644799301861
mp-1069983,Al3Ru2,"[Element Al, Element Ru]",2,Al3 Ru2,0.0,-0.5328650539999981,5.985448525409189
mp-1065933,YI,"[Element I, Element Y]",2,Y2 I2,0.0,-1.0302101575,4.773036068056478
mp-1094559,LiMg2,"[Element Li, Element Mg]",2,Li2 Mg4,0.0,-0.009191603888888001,1.409734331724788
mp-1069841,V2N3,"[Element N, Element V]",2,V2 N3,0.0,-0.9860095244999991,5.5530355611111215
mp-1094282,SrMg2,"[Element Mg, Element Sr]",2,Sr2 Mg4,0.0,0.184288999999999,2.161333911996483
mp-1094853,LiMg,"[Element Li, Element Mg]",2,Li2 Mg2,0.0,-0.008829643333333,1.204116675467886
mp-1063280,LaHg2,"[Element Hg, Element La]",2,La1 Hg2,0.0,-0.209623780000005,9.284259975059598
mp-1067974,ZrCl,"[Element Cl, Element Zr]",2,Zr2 Cl2,0.0,-1.39844365125,4.531606037129365
mp-10901,Al3Pd2,"[Element Al, Element Pd]",2,Al3 Pd2,0.0,-0.812340915999999,6.138300384182941
mp-1094858,MgGa,"[Element Ga, Element Mg]",2,Mg2 Ga2,0.0,-0.012974501249999002,3.852055436427079
mp-1063156,ErCd2,"[Element Cd, Element Er]",2,Er1 Cd2,0.0,0.157221100000002,7.862084361013187
mp-1094003,ZnO2,"[Element O, Element Zn]",2,Zn1 O2,0.0,-0.7347435933333331,4.69455051478437
mp-1096986,HC,"[Element C, Element H]",2,H2 C2,3.0918,-0.113145389375,1.602751381267943
mp-11107,Ac2O3,"[Element Ac, Element O]",2,Ac2 O3,3.522599999999999,-3.737668289999997,9.109129867325775
mp-10886,Al3Cu2,"[Element Al, Element Cu]",2,Al3 Cu2,0.0,-0.195314849999999,4.771500013789294
mp-10905,Al3Pt2,"[Element Al, Element Pt]",2,Al3 Pt2,0.0,-1.102624861999999,9.835325255848748
mp-1094615,MgGa2,"[Element Ga, Element Mg]",2,Mg2 Ga4,0.0,0.018958145000000003,4.550373580989406
mp-1096866,CdO2,"[Element Cd, Element O]",2,Cd1 O2,0.0,-0.46503864999999905,5.5239722931929105
mp-1094480,Mg2Zn,"[Element Mg, Element Zn]",2,Mg4 Zn2,0.0,0.04177319,3.124907308544986
mp-1094355,Sr2Mg,"[Element Mg, Element Sr]",2,Sr4 Mg2,0.0,0.10694732999999901,2.432714082252226
mp-1094623,Mg2Ga,"[Element Ga, Element Mg]",2,Mg4 Ga2,0.0,0.0136768175,3.11404275667186
mp-1094753,MgSn,"[Element Mg, Element Sn]",2,Mg2 Sn2,0.0,0.015466990000000002,4.697228038803279
mp-1101258,TiS2,"[Element S, Element Ti]",2,Ti3 S6,0.0,-1.605192267222221,2.7282007137692332
mp-1073325,MgSi2,"[Element Mg, Element Si]",2,Mg1 Si2,0.0,0.135986314999999,2.306650616030606
mp-1103073,Sb2Br9,"[Element Br, Element Sb]",2,Sb2 Br9,0.0,-0.358361641363636,3.261785197422843
mp-1094569,Li2Mg,"[Element Li, Element Mg]",2,Li4 Mg2,0.0,-0.007668321111111,0.9981258429785541
mp-1094684,CeMg2,"[Element Ce, Element Mg]",2,Ce2 Mg4,0.0,0.019415970000001,4.3452429591352555
mp-1066783,ZrBr,"[Element Br, Element Zr]",2,Zr2 Br2,0.0,-1.177832834999999,5.5056848809687615
mp-1069815,In3Pt2,"[Element In, Element Pt]",2,In3 Pt2,0.0,-0.5989599319999961,12.082838933845673
mp-1094228,Mg2Sn,"[Element Mg, Element Sn]",2,Mg4 Sn2,0.0,0.019582966666667003,3.790515646578098
mp-1094788,MgZn,"[Element Mg, Element Zn]",2,Mg2 Zn2,0.0,0.0234741275,3.959357398932831
mp-1094870,YMg,"[Element Mg, Element Y]",2,Y2 Mg2,0.0,0.080683055,3.307491526325624
mp-1094401,YMg2,"[Element Mg, Element Y]",2,Y2 Mg4,0.0,0.07041433333333301,2.850117337825767
mp-1094790,SrMg,"[Element Mg, Element Sr]",2,Sr2 Mg2,0.0,0.14847129083333102,2.3320484927896272
mp-1207060,TiI2,"[Element I, Element Ti]",2,Ti1 I2,0.0,-0.8628569611111101,5.095647984547276
mp-1170,SnS2,"[Element S, Element Sn]",2,Sn1 S2,1.514799999999999,-0.473969728541665,4.169006438095262
mp-1204207,Nb10Ge7,"[Element Ge, Element Nb]",2,Nb30 Ge21,0.0,-0.456514242058824,8.232736749381383
mp-1207013,Si2Rh3,"[Element Rh, Element Si]",2,Si2 Rh3,0.0,-0.854004504000002,8.771641257171781
mp-1187843,TiPb3,"[Element Pb, Element Ti]",2,Ti2 Pb6,0.0,0.279883202083325,10.288603157011885
mp-1115,PtSe2,"[Element Pt, Element Se]",2,Pt1 Se2,0.6193000000000001,-0.46391612604166704,8.416136651043896
mp-1181450,EuGe2,"[Element Eu, Element Ge]",2,Eu1 Ge2,0.0,0.301505669444442,3.6981510551625982
mp-1213750,Cr5Te8,"[Element Cr, Element Te]",2,Cr5 Te8,0.0,-0.46284295871794906,6.312772768720801
mp-1206713,Al2Zn,"[Element Al, Element Zn]",2,Al2 Zn1,0.0,0.024578678333333003,4.275531933288259
mp-1206375,DyH3,"[Element Dy, Element H]",2,Dy1 H3,0.0,-0.48317775114583306,5.032142702578628
mp-1206683,PbS2,"[Element Pb, Element S]",2,Pb1 S2,0.44370000000000004,-0.28809032833333104,5.679453291767977
mp-1206728,TbHg2,"[Element Hg, Element Tb]",2,Tb1 Hg2,0.0,-0.48841836541666306,12.536978969868105
mp-1207227,Mg2Bi3,"[Element Bi, Element Mg]",2,Mg2 Bi3,0.0,-0.033448190000001,7.3300667675983835
mp-1206370,Mg2Sb3,"[Element Mg, Element Sb]",2,Mg2 Sb3,0.0,-0.20942990999999903,4.805787366516548
mp-1205930,Li5Ga4,"[Element Ga, Element Li]",2,Li5 Ga4,0.0,-0.38482146481481505,3.930780964274037
mp-1206431,In2Au3,"[Element Au, Element In]",2,In2 Au3,0.0,-0.13588202400000002,12.221819300881926
mp-1180789,K3Rh,"[Element K, Element Rh]",2,K3 Rh1,0.0,0.538552842749999,1.997554320861691
mp-1207204,LuF3,"[Element F, Element Lu]",2,Lu1 F3,7.4832,-4.446491341666665,7.2602835954275005
mp-1186,ZrS2,"[Element S, Element Zr]",2,Zr1 S2,1.0418,-1.8483086849999992,3.618665179720018
mp-1120788,CoCl2,"[Element Cl, Element Co]",2,Co1 Cl2,0.09100000000000001,-0.9311219016666661,1.208169946956345
mp-11324,TaSe2,"[Element Se, Element Ta]",2,Ta1 Se2,0.0,-0.9016619951527781,7.991987232264547
mp-11397,Ga3Ni2,"[Element Ga, Element Ni]",2,Ga3 Ni2,0.0,-0.42378557400000005,8.000560882493867
mp-1206914,ZnTe2,"[Element Te, Element Zn]",2,Zn1 Te2,0.0,-0.33233362777777603,6.747026259379396
mp-1207843,V7S8,"[Element S, Element V]",2,V7 S8,0.0,-1.166848598666666,4.770096119742724
mp-1214190,Bi2Se,"[Element Bi, Element Se]",2,Bi8 Se4,0.0,-0.174319747187505,8.690180759805303
mp-1206157,Cu7Si2,"[Element Cu, Element Si]",2,Cu7 Si2,0.0,-0.008602459037037,7.587918869967147
mp-1173628,Nb39C34,"[Element C, Element Nb]",2,Nb39 C34,0.0,-0.516384108030824,7.581563115909876
mp-1214397,Bi8Te7,"[Element Bi, Element Te]",2,Bi24 Te21,0.0945,-0.21159002577777603,7.892228883402623
mp-1207193,CuTe2,"[Element Cu, Element Te]",2,Cu1 Te2,0.0,0.003043896666665,7.477857368333115
mp-1215,Ti2O,"[Element O, Element Ti]",2,Ti2 O1,0.0,-2.035562333888889,5.09095651040831
mp-1217121,Ti3S4,"[Element S, Element Ti]",2,Ti3 S4,0.0,-1.487872079999999,3.717000761259412
mp-1218185,TaCo3,"[Element Co, Element Ta]",2,Ta6 Co18,0.0,-0.12018700933333301,12.042701028737632
mp-1218120,Ta3C2,"[Element C, Element Ta]",2,Ta12 C8,0.0,-0.665579795900004,14.708264538572356
mp-1217984,Ta3N,"[Element N, Element Ta]",2,Ta3 N1,0.0,-0.538407486687503,15.433971747492405
mp-1219462,SbTe2,"[Element Sb, Element Te]",2,Sb1 Te2,0.0,-0.390460437777773,6.543239735881425
mp-1220660,NbCo3,"[Element Co, Element Nb]",2,Nb6 Co18,0.0,-0.06431612624999901,8.952881583522855
mp-1215431,ZnCo2,"[Element Co, Element Zn]",2,Zn1 Co2,0.0,0.036770181515149006,8.574801716631919
mp-1216564,Tl2O3,"[Element O, Element Tl]",2,Tl2 O3,0.0,-0.9843045263333361,10.417514721687242
mp-1216702,UF3,"[Element F, Element U]",2,U1 F3,0.0849,-3.88726809125,7.002418247655496
mp-1220631,Nb3S4,"[Element Nb, Element S]",2,Nb3 S4,0.0,-1.309368832857143,5.424419246267592
mp-1220321,NbPt2,"[Element Nb, Element Pt]",2,Nb1 Pt2,0.0,-0.43118554333333203,16.287913252665373
mp-1221473,Mo3C2,"[Element C, Element Mo]",2,Mo3 C2,0.0,-0.014133888749998002,8.769511646413191
mp-1222013,MgAl2,"[Element Al, Element Mg]",2,Mg1 Al2,0.0,0.050633344166667,2.420432972494253
mp-1218948,SnP,"[Element P, Element Sn]",2,Sn2 P2,0.0,0.019953296011905,4.888076654824982
mp-1221487,MoCl6,"[Element Cl, Element Mo]",2,Mo3 Cl18,1.0905,-0.842647802619049,2.7555827577291243
mp-1221567,MnPt2,"[Element Mn, Element Pt]",2,Mn1 Pt2,0.0,-0.18986332931034303,15.990239202292132
mp-1224698,Fe2N,"[Element Fe, Element N]",2,Fe2 N1,0.0,-0.037181334999999004,7.19008531075953
mp-1215401,ZnCu2,"[Element Cu, Element Zn]",2,Zn1 Cu2,0.0,-0.032887879999999,8.78499533884352
mp-1217264,ThZr2,"[Element Th, Element Zr]",2,Th1 Zr2,0.0,0.12303598666667401,8.831455065134511
mp-1220726,Nb2N,"[Element N, Element Nb]",2,Nb2 N1,0.0,-0.8655728651388911,7.913176866402883
mp-1221498,Mo2C,"[Element C, Element Mo]",2,Mo2 C1,0.0,-0.076285686666667,9.023493673108161
mp-1224692,Fe2Pt,"[Element Fe, Element Pt]",2,Fe2 Pt1,0.0,0.107300243333334,13.676930812982697
mp-1217189,Ti5Mn7,"[Element Mn, Element Ti]",2,Ti5 Mn7,0.0,-0.240953831848656,5.886833804205797
mp-1224697,Fe2Ni,"[Element Fe, Element Ni]",2,Fe2 Ni1,0.0,0.04451391666666701,8.224540201109791
mp-1221793,Mn2N,"[Element Mn, Element N]",2,Mn2 N1,0.0,-0.36530449507183704,6.765493316110953
mp-1216509,V3C2,"[Element C, Element V]",2,V12 C8,0.0,-0.44958172766666704,5.634773980945674
mp-1221489,Mo3C2,"[Element C, Element Mo]",2,Mo6 C4,0.0,0.015144901249999001,8.73718909357157
mp-1224694,Fe2Pd,"[Element Fe, Element Pd]",2,Fe2 Pd1,0.0,0.072371680000001,8.908050082019246
mp-1223728,In2Pt,"[Element In, Element Pt]",2,In2 Pt1,0.0,-0.317704390000002,9.513061703452276
mp-1223062,LaAg5,"[Element Ag, Element La]",2,La2 Ag10,0.0,-0.109825852499999,8.72946584076949
mp-1224793,FePd2,"[Element Fe, Element Pd]",2,Fe1 Pd2,0.0,-0.045495663333332007,10.754366405558697
mp-1221162,Nb19Fe20,"[Element Fe, Element Nb]",2,Nb19 Fe20,0.0,-0.108332015641024,8.443468424701518
mp-13064,Dy2O3,"[Element Dy, Element O]",2,Dy2 O3,4.1997,-3.9594392734166672,9.210029352814503
mp-1225746,Cu3N,"[Element Cu, Element N]",2,Cu3 N1,0.0,0.514453951250001,7.874666578880049
mp-1225705,CuH,"[Element Cu, Element H]",2,Cu2 H2,0.0,0.098205464999999,6.551347004731401
mp-1226350,Cr3Te5,"[Element Cr, Element Te]",2,Cr3 Te5,0.0,-0.22731475791666603,6.453120007440156
mp-1224858,GaNi2,"[Element Ga, Element Ni]",2,Ga1 Ni2,0.0,-0.08843517083333301,8.39372971175109
mp-1224826,GaFe2,"[Element Fe, Element Ga]",2,Ga1 Fe2,0.0,0.09006881083333301,7.796148908407959
mp-1226072,Co4H,"[Element Co, Element H]",2,Co4 H1,0.0,-0.008489950249999,8.851032151784622
mp-1228448,Al2O3,"[Element Al, Element O]",2,Al2 O3,2.286,-3.183729795,2.834676694874493
mp-1226439,Co2Pd,"[Element Co, Element Pd]",2,Co2 Pd1,0.0,0.07620322999999901,9.77963711555381
mp-1225239,Fe3Ge2,"[Element Fe, Element Ge]",2,Fe3 Ge2,0.0,0.012346606000001,7.637916917155846
mp-1224800,FeTe2,"[Element Fe, Element Te]",2,Fe1 Te2,0.0,-0.33830547777777603,7.2656949663782875
mp-13063,Tb2O3,"[Element O, Element Tb]",2,Tb2 O3,4.1338,-3.942971762416667,8.871202260575703
mp-13068,Lu2O3,"[Element Lu, Element O]",2,Lu2 O3,4.0883,-4.039624749416665,10.734582977414272
mp-1226378,Cr2C,"[Element C, Element Cr]",2,Cr2 C1,0.0,-0.036045381666667,6.631786790444232
mp-1247784,Cs2Se,"[Element Cs, Element Se]",2,Cs2 Se1,1.2841,-1.166100383020833,3.291985986742609
mp-13061,Y2O3,"[Element O, Element Y]",2,Y2 O3,4.083600000000001,-3.8966378764999963,5.546597092739123
mp-13067,Tm2O3,"[Element O, Element Tm]",2,Tm2 O3,4.1535,-4.021751758250004,10.070075109083408
mp-1225515,DyTh2,"[Element Dy, Element Th]",2,Dy1 Th2,0.0,0.018256578333335,10.773703383456178
mp-1225831,Cu10N3,"[Element Cu, Element N]",2,Cu10 N3,0.0,0.197458948846155,6.6782097320479
mp-1272139,SnBr2,"[Element Br, Element Sn]",2,Sn1 Br2,0.0,-1.135941851666664,4.3424662547779125
mp-1297,Tl9Pd13,"[Element Pd, Element Tl]",2,Tl9 Pd13,0.0,-0.23575960045454503,13.126490516763798
mp-13060,Sc2O3,"[Element O, Element Sc]",2,Sc2 O3,3.3909000000000002,-3.836842867,4.061805999011981
mp-1229093,Ag2Hg,"[Element Ag, Element Hg]",2,Ag2 Hg1,0.0,0.05466904416666701,12.04099188665414
mp-13065,Ho2O3,"[Element Ho, Element O]",2,Ho2 O3,4.2423,-3.973794766499998,9.494059801434206
mp-1238797,MoS2,"[Element Mo, Element S]",2,Mo1 S2,0.0,-0.6698387318749981,4.667732420508524
mp-1245668,Cu2As3,"[Element As, Element Cu]",2,Cu2 As3,0.0,0.17470517900000002,6.729313366635031
mp-13066,Er2O3,"[Element Er, Element O]",2,Er2 O3,4.196899999999999,-3.997353955499998,9.79728716014426
mp-1968,La2O3,"[Element La, Element O]",2,La2 O3,3.824799999999999,-3.8759289195,6.615226585908185
mp-1662,Te2Au,"[Element Au, Element Te]",2,Te8 Au4,0.0,-0.072704987083336,9.956465114849781
mp-1940,Th2N3,"[Element N, Element Th]",2,Th2 N3,0.0,-1.639255768333328,10.29738169598703
mp-2019249,HgPb2,"[Element Hg, Element Pb]",2,Hg1 Pb2,0.0,0.022302264166664,11.592944112222103
mp-13146,Ca3N2,"[Element Ca, Element N]",2,Ca3 N2,1.4173,-0.8667898127499991,2.759866377012208
mp-21385,In3Ni2,"[Element In, Element Ni]",2,In3 Ni2,0.0,-0.210675882000001,8.690494773884417
mp-1690,TaS2,"[Element S, Element Ta]",2,Ta1 S2,0.0,-1.364977215777776,6.657518410741036
mp-2038287,HgBr2,"[Element Br, Element Hg]",2,Hg3 Br6,2.036,-0.7949726102777861,6.360476928993958
mp-2076,ZrSe2,"[Element Se, Element Zr]",2,Zr1 Se2,0.3296,-1.5805342943749991,5.139046403440359
mp-1391,Ag2F,"[Element Ag, Element F]",2,Ag2 F1,0.0,-0.8383200133333321,8.762918242663323
mp-1952,Ba7Al13,"[Element Al, Element Ba]",2,Ba7 Al13,0.0,-0.217451488499998,3.956883971440272
mp-2023482,Rb2O,"[Element O, Element Rb]",2,Rb6 O3,0.7837000000000001,-1.019249274861111,3.37719445240814
mp-20470,Gd2O3,"[Element Gd, Element O]",2,Gd2 O3,2.969999999999999,-3.864237869500002,8.482626307434368
mp-21400,Ga3Pt2,"[Element Ga, Element Pt]",2,Ga3 Pt2,0.0,-0.5968488764999991,12.160042258329582
mp-228,Te2Rh,"[Element Rh, Element Te]",2,Te2 Rh1,0.0,-0.43984005000000004,8.033481845611933
mp-22877,VCl2,"[Element Cl, Element V]",2,V1 Cl2,1.255999999999999,-1.609167691666666,2.896771909691129
mp-2063,Pr2O3,"[Element O, Element Pr]",2,Pr2 O3,3.745199999999999,-3.728230869166667,6.899506900183612
mp-22116,EuGe2,"[Element Eu, Element Ge]",2,Eu1 Ge2,0.0,-0.542215925000003,6.993363436843392
mp-2156,TiS2,"[Element S, Element Ti]",2,Ti3 S6,0.0,-1.607513912777776,3.041030836952365
mp-2194,TiSe2,"[Element Se, Element Ti]",2,Ti1 Se2,0.0,-1.426344962673612,4.914316375422942
mp-22880,FeBr2,"[Element Br, Element Fe]",2,Fe1 Br2,0.0,-0.7966675133333341,4.51325786880112
mp-1907,TiTe2,"[Element Te, Element Ti]",2,Ti1 Te2,0.0,-0.8244433122222241,5.914493174805713
mp-21423,Pu2O3,"[Element O, Element Pu]",2,Pu2 O3,0.0,-3.214050472499994,12.163076056320207
mp-2285,Te2Ir,"[Element Ir, Element Te]",2,Te2 Ir1,0.0,-0.32818080666666505,9.9191574502285
mp-22787,Fe2Si,"[Element Fe, Element Si]",2,Fe4 Si2,0.0,-0.35657968833333203,7.315554550996536
mp-23250,UCl6,"[Element Cl, Element U]",2,U3 Cl18,1.5811000000000002,-1.6416696223809542,3.383824291057771
mp-2646,Mg3Sb2,"[Element Mg, Element Sb]",2,Mg3 Sb2,0.2172,-0.421186031,4.005611043908395
mp-2763,Nd2O3,"[Element Nd, Element O]",2,Nd2 O3,3.8089,-3.775887380999997,7.240575197487425
mp-23205,MgI2,"[Element I, Element Mg]",2,Mg1 I2,3.6162,-1.3037782916666671,4.263115800501802
mp-28306,MnBr2,"[Element Br, Element Mn]",2,Mn1 Br2,1.5962,-1.169033052643679,4.237394852087011
mp-2318,Nb2C,"[Element C, Element Nb]",2,Nb2 C1,0.0,-0.526015103333333,7.660116793866054
mp-22893,PbI2,"[Element I, Element Pb]",2,Pb1 I2,2.3703,-0.920223401666663,5.724891274435786
mp-2721,Ce2O3,"[Element Ce, Element O]",2,Ce2 O3,0.0,-3.688947110999999,7.123829429995266
mp-27943,W2N,"[Element N, Element W]",2,W6 N3,0.0,0.44413373652777904,15.4692444726509
mp-23178,WCl6,"[Element Cl, Element W]",2,W3 Cl18,1.7484000000000002,-0.9460145016666651,3.399834167244909
mp-23224,BiTe,"[Element Bi, Element Te]",2,Bi6 Te6,0.0,-0.22833432583333502,7.78148624828885
mp-27922,GeI2,"[Element Ge, Element I]",2,Ge3 I6,2.0217,-0.594992870555555,4.739246027910595
mp-2755,SiTe2,"[Element Si, Element Te]",2,Si1 Te2,0.0,0.048259371666664004,5.312401420443375
mp-27785,TiBr2,"[Element Br, Element Ti]",2,Ti1 Br2,0.0,-1.393762114444443,4.114869812584196
mp-27902,BiSe,"[Element Bi, Element Se]",2,Bi6 Se6,0.0,-0.35793819536458604,7.675824550082467
mp-28013,MnI2,"[Element I, Element Mn]",2,Mn1 I2,1.170799999999999,-0.7063810159770101,4.767267673406124
mp-28116,TiCl2,"[Element Cl, Element Ti]",2,Ti1 Cl2,0.0,-1.631496091041666,2.6823127960692252
mp-2578,NiTe2,"[Element Ni, Element Te]",2,Ni1 Te2,0.0,-0.22533823666666802,7.504894339130935
mp-25223,MnO2,"[Element Mn, Element O]",2,Mn1 O2,1.521,-1.7589570918103452,4.439568732091402
mp-25470,AlCl3,"[Element Al, Element Cl]",2,Al1 Cl3,0.0,-0.7835284556249991,2.691596107270746
mp-399,Te2Pt,"[Element Pt, Element Te]",2,Te2 Pt1,0.0,-0.44249040333333206,9.62252563087982
mp-29957,Zr5Te6,"[Element Te, Element Zr]",2,Zr15 Te18,0.0,-1.037563954090907,7.034554686214326
mp-30761,Li7Pb2,"[Element Li, Element Pb]",2,Li7 Pb2,0.0,-0.31826043703703805,4.698850344437975
mp-29803,SiH,"[Element H, Element Si]",2,Si2 H2,2.1634,0.036175890624999006,1.3027411029042661
mp-29671,TmI2,"[Element I, Element Tm]",2,Tm1 I2,0.0,-1.397363796666666,6.3675713012143484
mp-29735,Nb10Ge7,"[Element Ge, Element Nb]",2,Nb30 Ge21,0.0,0.148261076960783,7.169109252695855
mp-31473,K2Hg7,"[Element Hg, Element K]",2,K2 Hg7,0.0,-0.237695974444445,9.238810872835934
mp-567296,CdI2,"[Element Cd, Element I]",2,Cd3 I6,2.321799999999999,-0.8268726917777771,5.242530748024641
mp-29950,Nb3Cl8,"[Element Cl, Element Nb]",2,Nb6 Cl16,0.1451,-1.45420768090909,3.651319771696544
mp-30769,Li13Sn5,"[Element Li, Element Sn]",2,Li13 Sn5,0.0,-0.39301188268518306,3.546076365463732
mp-30034,MgBr2,"[Element Br, Element Mg]",2,Mg1 Br2,4.4707,-1.853706801666665,3.705847571975385
mp-32686,CoO2,"[Element Co, Element O]",2,Co2 O4,0.0,-0.964946561666669,5.163538430869658
mp-29941,Sc2C,"[Element C, Element Sc]",2,Sc2 C1,0.0,-0.519047323333332,3.114025125409336
mp-31474,Rb2Hg7,"[Element Hg, Element Rb]",2,Rb2 Hg7,0.0,-0.21101027361111302,9.145493964190143
mp-30033,CoBr2,"[Element Br, Element Co]",2,Co1 Br2,0.1072,-0.6677658133333331,4.667836392740899