material_id,formula_pretty,elements,nelements,composition,band_gap,formation_energy_per_atom,density
mp-863766,Fe32O35,"[Element Fe, Element O]",2,Fe32 O35,0.507899999999999,-1.475207054701491,5.322067135883766
mp-1075532,Mg5Si6,"[Element Mg, Element Si]",2,Mg10 Si12,0.0,0.151010935,2.3659890550419043
mp-1073330,MgSi2,"[Element Mg, Element Si]",2,Mg4 Si8,0.0,0.254004402499999,2.711575109855128
mp-1073669,MgSi2,"[Element Mg, Element Si]",2,Mg4 Si8,0.0,0.284323039166666,2.654726279391662
mp-1101145,Te16Rh15,"[Element Rh, Element Te]",2,Te16 Rh15,0.0,-0.36837972967741905,9.34234357904646
mp-1041270,Sb4O9,"[Element O, Element Sb]",2,Sb8 O18,0.0,-1.564208818076924,5.418902699941139
mp-1018888,PdCl2,"[Element Cl, Element Pd]",2,Pd2 Cl4,1.0968,-0.5565528133333351,3.322800323639406
mp-1197770,W17O47,"[Element O, Element W]",2,W17 O47,0.0,-2.148147158828125,7.031772651678503
mp-1215428,Zr8As5,"[Element As, Element Zr]",2,Zr32 As20,0.0,-0.951422908653846,6.6306743865028555
mp-1080628,CeSe2,"[Element Ce, Element Se]",2,Ce28 Se56,0.994499999999999,-1.3946681156101182,1.852559453342145
mp-1073366,MgSi2,"[Element Mg, Element Si]",2,Mg4 Si8,0.0,0.235519805833333,2.746198980003739
mp-1180197,MoO5,"[Element Mo, Element O]",2,Mo2 O10,0.0,-0.530491991666667,3.167110676521253
mp-1181657,Fe3O4,"[Element Fe, Element O]",2,Fe12 O16,1.0663,-1.60485173392857,4.8143827842223885
mp-1181766,FeO2,"[Element Fe, Element O]",2,Fe8 O16,0.0,-1.242372740833333,3.768486340255357
mp-1188928,In9Cu11,"[Element Cu, Element In]",2,In9 Cu11,0.0,-0.036334028000001004,8.642541705524113
mp-1096934,CrN2,"[Element Cr, Element N]",2,Cr28 N56,0.0,-0.13021877160714102,1.886775626645166
mp-1073304,MgSi2,"[Element Mg, Element Si]",2,Mg4 Si8,0.0,0.169794594166666,2.248130625137137
mp-1080347,CeSe2,"[Element Ce, Element Se]",2,Ce4 Se8,0.5235000000000001,-1.666353895729165,4.342244803594271
mp-1073268,MgSi2,"[Element Mg, Element Si]",2,Mg4 Si8,0.0,0.176018510833333,2.133033566240343
mp-1216300,Zr20Sn13,"[Element Sn, Element Zr]",2,Zr20 Sn13,0.0,-0.637583183030308,7.356537661505509
mp-1073594,MgSi2,"[Element Mg, Element Si]",2,Mg4 Si8,0.0,0.251886383333333,2.633937894536246
mp-1179617,W17O47,"[Element O, Element W]",2,W17 O47,0.0,-0.876820988046874,6.07956064483032
mp-1199711,Si18O29,"[Element O, Element Si]",2,Si72 O116,0.092599999999999,-2.814363742765957,1.724273723364541
mp-1075211,Mg3Si4,"[Element Mg, Element Si]",2,Mg6 Si8,0.0,0.19441022785714202,2.47777045318573
mp-1181340,Fe3O4,"[Element Fe, Element O]",2,Fe3 O4,1.0689,-1.521050031428571,4.844984141501324
mp-1181546,Fe3O4,"[Element Fe, Element O]",2,Fe12 O16,0.0,-1.5692549735714292,4.845771446944877
mp-1217804,Ta11Al4,"[Element Al, Element Ta]",2,Ta22 Al8,0.0,-0.21359692537777503,13.392678480213117
mp-1223977,In5Pt11,"[Element In, Element Pt]",2,In5 Pt11,0.0,-0.480797083124997,17.02350300336423
mp-1217429,Te16Rh9,"[Element Rh, Element Te]",2,Te16 Rh9,0.0,-0.44575562080000003,8.206979856344736
mp-1228008,BaBi5,"[Element Ba, Element Bi]",2,Ba1 Bi5,0.0,-0.21789316666666902,9.264246666087596
mp-1220379,NbRh2,"[Element Nb, Element Rh]",2,Nb2 Rh4,0.0,-0.33760481333333303,10.72214869139122
mp-1216708,V3Ni2,"[Element Ni, Element V]",2,V18 Ni12,0.0,-0.178457364333331,7.489240510711626
mp-559445,VO2,"[Element O, Element V]",2,V4 O8,1.2536,-1.9837880500000011,1.926755707702279
mp-1223755,InPt2,"[Element In, Element Pt]",2,In8 Pt16,0.0,-0.49148685208333104,16.735794035227254
mp-1238961,Ta2O5,"[Element O, Element Ta]",2,Ta2 O5,2.341,-3.332635937809524,7.574235876861001
mp-1217152,Ti2O,"[Element O, Element Ti]",2,Ti6 O3,0.0,-1.971153813888889,4.970669312336571
mp-1251148,AlF3,"[Element Al, Element F]",2,Al2 F6,7.4507,-3.82961855875,2.726775486958584
mp-560708,SiO2,"[Element O, Element Si]",2,Si28 O56,5.819199999999999,-3.257480649166666,1.770509671361885
mp-569073,LiSn,"[Element Li, Element Sn]",2,Li3 Sn3,0.0,-0.325866989166666,5.092956930678413
mp-1219822,Ni7Sn8,"[Element Ni, Element Sn]",2,Ni7 Sn8,0.0,-0.22743251666666503,8.587058499745128
mp-2039648,CrO,"[Element Cr, Element O]",2,Cr4 O4,0.0,-1.870891144374999,4.819162100866343
mp-2637304,Al2O3,"[Element Al, Element O]",2,Al4 O6,1.4387,-2.643370957000001,2.61970290909868
mp-907,W18O49,"[Element O, Element W]",2,W18 O49,0.0,-2.15327105216418,7.205940692484215
mp-684657,Pd7O8,"[Element O, Element Pd]",2,Pd42 O48,0.0,-0.729964483777778,7.6063421192978655
mp-1216851,V32N3,"[Element N, Element V]",2,V32 N3,0.0,-0.283197219321428,6.279631002554862
mp-27732,W10O29,"[Element O, Element W]",2,W20 O58,0.0,-2.166001550897435,6.758773214582207
mp-1217869,Ti24Pb19,"[Element Pb, Element Ti]",2,Ti24 Pb19,0.0,-0.06867740511627801,9.392228497196491
mp-566801,VO2,"[Element O, Element V]",2,V4 O8,0.353599999999999,-1.976319661666668,1.8397974429639241
mp-567345,NbRh,"[Element Nb, Element Rh]",2,Nb3 Rh3,0.0,-0.38570528333333404,10.24194479717613
mp-796336,MnO2,"[Element Mn, Element O]",2,Mn6 O12,0.985,-1.7864398956992351,3.4873325260826142
mp-987595,LaTe2,"[Element La, Element Te]",2,La8 Te16,0.0,-1.682260375277779,6.7477107454352385
mp-818205,V3O10,"[Element O, Element V]",2,V6 O20,0.0,-1.4325543826923082,2.388062764629093
mp-1342078,LaTe2,"[Element La, Element Te]",2,La8 Te16,0.0,-1.6822356419444442,6.752279062820099
mp-571576,LaTe2,"[Element La, Element Te]",2,La8 Te16,0.0,-1.6826708548611111,6.752279052695284
mp-1227307,Cr8Co7,"[Element Co, Element Cr]",2,Cr16 Co14,0.0,0.288618258666667,7.758061735746135
mp-32959,H2O,"[Element H, Element O]",2,H4 O2,5.275399999999999,-1.254777948333333,1.647356170145688
mp-2565,S2N,"[Element N, Element S]",2,S16 N8,1.4408,0.307862483749999,1.73469804349237
mp-673800,U11S20,"[Element S, Element U]",2,U22 S40,0.0,0.189381763776883,12.008138477485858
mp-685220,U11Se20,"[Element Se, Element U]",2,U22 Se40,0.0,-1.464338157641125,9.06966368585074
mp-7591,GeAs,"[Element As, Element Ge]",2,Ge1 As1,0.0,0.045149222083335,5.804404726809452
mp-696597,B5H9,"[Element B, Element H]",2,B5 H9,5.709300000000001,-0.053300720089286005,0.7519708229324721
mp-569147,UP2,"[Element P, Element U]",2,U4 P8,0.0,-0.966161588650791,8.597711742786172
mp-1105025,In2Te3,"[Element In, Element Te]",2,In6 Te9,0.0,-0.13883929155555602,4.59538571842013
mp-1219386,Sn2Rh,"[Element Rh, Element Sn]",2,Sn6 Rh3,0.0,0.7667284655555561,6.9372537817152775
mp-20466,Sn7Ir5,"[Element Ir, Element Sn]",2,Sn7 Ir5,0.0,-0.29034646416666404,12.381359486698242
mp-7590,GeP,"[Element Ge, Element P]",2,Ge1 P1,0.0,0.096326366011904,4.819923238786061
mp-2037040,HCl,"[Element Cl, Element H]",2,H1 Cl1,5.1152,-0.504504255625,1.4834605528995342
mp-2646978,GaN,"[Element Ga, Element N]",2,Ga4 N4,0.188699999999999,-0.24444502312499902,6.659412168780616
mp-7526,SnP,"[Element P, Element Sn]",2,Sn1 P1,0.0,0.006095231011904001,5.551903769637845
mp-22732,Co5Ge7,"[Element Co, Element Ge]",2,Co5 Ge7,0.0,0.5074044600000011,7.13553052483334
mp-32590,U4N7,"[Element N, Element U]",2,U16 N28,0.0,-1.73999297125,11.57115259402119
mp-1067587,TaP,"[Element P, Element Ta]",2,Ta2 P2,0.0,-0.995565067654762,11.16717678534869
mp-1103947,La2H5,"[Element H, Element La]",2,La4 H10,0.0,-0.7231244941071431,5.327809474281688
mp-1936,TaAs,"[Element As, Element Ta]",2,Ta2 As2,0.0,-0.6207010699166701,12.211799745495185
mp-1342139,Re2O7,"[Element O, Element Re]",2,Re4 O14,0.0,-1.3913934594444441,5.939646120120717
mp-28978,Ba2S3,"[Element Ba, Element S]",2,Ba4 S6,1.2985,-1.9196869674999992,4.10595871636164
mp-543061,Mo4O5,"[Element Mo, Element O]",2,Mo16 O20,0.0,-1.003489271111111,6.336928520439955
mp-2059,NbAs,"[Element As, Element Nb]",2,Nb2 As2,0.0,-0.670993056250001,7.854668476895528
mp-9339,NbP,"[Element Nb, Element P]",2,Nb2 P2,0.11620000000000001,-0.988663269821428,6.387205680425864
mp-1078696,PbS,"[Element Pb, Element S]",2,Pb4 S4,0.7479999999999991,-0.701380671249997,6.490216639031639
mp-1016048,CrN2,"[Element Cr, Element N]",2,Cr32 N64,0.14779999999999902,-0.12726283468749902,1.758496186963659
mp-1048,TiNi,"[Element Ni, Element Ti]",2,Ti2 Ni2,0.0,-0.39585502666666605,6.625800858603042
mp-1001825,LiBe,"[Element Be, Element Li]",2,Li2 Be2,0.0,0.16695820083333301,1.187993108073793
mp-1048410,VN,"[Element N, Element V]",2,V2 N2,0.0,-1.169514046874999,6.150247680781899
mp-1073745,MgSi,"[Element Mg, Element Si]",2,Mg6 Si6,0.0,0.14316013499999902,2.342980672345148
mp-1007786,HfIr,"[Element Hf, Element Ir]",2,Hf2 Ir2,0.0,-0.9479872649999981,17.03764111781878
mp-10636,SrSb2,"[Element Sb, Element Sr]",2,Sr2 Sb4,0.0,-0.7955539666666661,5.617496260832804
mp-1073794,MgSi,"[Element Mg, Element Si]",2,Mg6 Si6,0.0,0.017663389166666002,2.2688898768794292
mp-1019077,ReN2,"[Element N, Element Re]",2,Re2 N4,0.0,0.12613278333333702,12.536966847335927
mp-1025522,ThTe3,"[Element Te, Element Th]",2,Th2 Te6,0.6758999999999991,-1.162119996249998,6.86253052217436
mp-1065844,RbS,"[Element Rb, Element S]",2,Rb2 S2,0.0,-0.750668962499999,2.864864138080151
mp-1079523,CoO4,"[Element Co, Element O]",2,Co2 O8,0.0161,-0.044351181,2.077783496710197
mp-1025459,HfTe3,"[Element Hf, Element Te]",2,Hf2 Te6,0.0,-0.7153248762500011,7.621929294589587
mp-1075481,Mg5Si6,"[Element Mg, Element Si]",2,Mg10 Si12,0.0,0.10631329227272701,2.389465327014215
mp-1067210,ZrCu,"[Element Cu, Element Zr]",2,Zr2 Cu2,0.0,-0.1250487375,7.2303868726776415
mp-1073599,MgSi2,"[Element Mg, Element Si]",2,Mg8 Si16,0.0,0.182112472499999,2.5794463009971462
mp-1073728,MgSi,"[Element Mg, Element Si]",2,Mg2 Si2,0.0,0.029790377499999004,2.258487994788408
mp-1041395,BiO2,"[Element Bi, Element O]",2,Bi8 O16,0.774099999999999,-1.284328487916667,5.9384334015067735
mp-1073478,MgSi2,"[Element Mg, Element Si]",2,Mg4 Si8,0.0,0.16200864749999902,2.459014464928774
mp-1077235,SmO2,"[Element O, Element Sm]",2,Sm2 O4,0.0,-3.062239176666666,6.1293854086564235
mp-1079673,ThSe3,"[Element Se, Element Th]",2,Th2 Se6,1.2728,-1.585264253046872,6.455077314213163
mp-1073419,MgSi2,"[Element Mg, Element Si]",2,Mg2 Si4,0.0,0.231189099999999,2.569932515420896
mp-1073484,MgSi2,"[Element Mg, Element Si]",2,Mg4 Si8,0.0,0.24051442416666602,2.363911015375353
mp-1078579,Fe4C,"[Element C, Element Fe]",2,Fe8 C2,0.0,0.133001996,7.876625246234445
mp-1078686,H3W,"[Element H, Element W]",2,H6 W2,0.0,0.134130594062499,12.068887572702012
mp-1079786,BiI3,"[Element Bi, Element I]",2,Bi2 I6,2.2293,-0.68001425625,4.881606473122021
mp-1055905,Fe7Se3,"[Element Fe, Element Se]",2,Fe28 Se12,0.0,-0.043908559453123004,7.307389067628602
mp-1075020,Mg3Si4,"[Element Mg, Element Si]",2,Mg6 Si8,0.0,0.185074594999999,2.44696543430461
mp-1080310,CeSe2,"[Element Ce, Element Se]",2,Ce4 Se8,0.0,-1.7985908290624981,6.351189857587358
mp-1101295,Ti2O3,"[Element O, Element Ti]",2,Ti4 O6,0.17750000000000002,-3.186178376333333,4.337641995960086
mp-11140,Ho2Sb5,"[Element Ho, Element Sb]",2,Ho8 Sb20,0.0,-0.7292153664285721,7.85390334670628
mp-1094386,Mg2Ti,"[Element Mg, Element Ti]",2,Mg16 Ti8,0.0,0.131010031805555,2.5919859236945433
mp-1079923,H3W,"[Element H, Element W]",2,H6 W2,0.0,0.0780638690625,8.990844851208388
mp-1079939,FeH4,"[Element Fe, Element H]",2,Fe2 H8,0.0,0.35971316199999903,4.558931521522122
mp-1176438,MnF3,"[Element F, Element Mn]",2,Mn4 F12,0.310999999999999,-2.742567913232758,3.245291272983107
mp-1094350,MgTi,"[Element Mg, Element Ti]",2,Mg6 Ti6,0.0,0.162417815833333,3.028629796521224
mp-1104603,Ce2Br5,"[Element Br, Element Ce]",2,Ce4 Br10,0.0,-2.19362999428571,4.921375480742849
mp-1080365,CeSe2,"[Element Ce, Element Se]",2,Ce24 Se48,1.0405,-1.392865519618054,1.767098874801961
mp-1080821,BaF3,"[Element Ba, Element F]",2,Ba2 F6,0.7896000000000001,-3.19318655375,4.492689528503932
mp-1096791,CeSe2,"[Element Ce, Element Se]",2,Ce32 Se64,0.9517000000000001,-1.393083275520832,1.6941098429848331
mp-1079919,Mg3Mn,"[Element Mg, Element Mn]",2,Mg6 Mn2,0.0,0.416316874267241,2.254945087687556
mp-1103475,TeO2,"[Element O, Element Te]",2,Te4 O8,2.284099999999999,-1.3304293430555552,6.187821007164548
mp-1080657,SiS4,"[Element S, Element Si]",2,Si2 S8,0.0,-0.298650508374997,2.094857811964887
mp-1094276,ZrSn,"[Element Sn, Element Zr]",2,Zr6 Sn6,0.0,-0.29573394291666405,7.358117525649417
mp-1094346,MgTi,"[Element Mg, Element Ti]",2,Mg6 Ti6,0.0,0.125709163333333,3.056192202071617
mp-1100450,MgSi,"[Element Mg, Element Si]",2,Mg4 Si4,0.0,0.04636432249999901,2.304888397850203
mp-1094289,ZrSn,"[Element Sn, Element Zr]",2,Zr6 Sn6,0.0,-0.339967283749999,7.3045447885809764
mp-1100460,MgSi2,"[Element Mg, Element Si]",2,Mg2 Si4,0.0,0.282553599999999,2.66846019110082
mp-1120746,Te2Mo,"[Element Mo, Element Te]",2,Te4 Mo2,0.0,-0.27437727166667003,1.455940584414068
mp-1087486,PbS,"[Element Pb, Element S]",2,Pb4 S4,1.223799999999999,-0.702153016249998,6.288228057126069
mp-1094290,Zr2Sn,"[Element Sn, Element Zr]",2,Zr16 Sn8,0.0,-0.264305062916667,7.122516872321817
mp-1094359,MgTi2,"[Element Mg, Element Ti]",2,Mg8 Ti16,0.0,0.15367793986111,3.5743187512768992
mp-1095184,NpSe3,"[Element Np, Element Se]",2,Np2 Se6,0.0,-1.225057957695313,7.010415481961349
mp-1101660,Nb2O5,"[Element Nb, Element O]",2,Nb4 O10,2.5972,-2.974017746428572,4.298674088347498
mp-1191680,TaSe3,"[Element Se, Element Ta]",2,Ta6 Se18,0.0,-0.730190390296873,7.689992075758281
mp-1181235,GdO2,"[Element Gd, Element O]",2,Gd2 O4,0.0,-3.102687444999999,6.839297430529564
mp-1189696,Si5Ir4,"[Element Ir, Element Si]",2,Si10 Ir8,0.0,-0.692318358888889,11.344974252705875
mp-1179595,Sb3O14,"[Element O, Element Sb]",2,Sb6 O28,0.11269999999999901,-0.217865385588235,4.016317180400531
mp-1179013,TiNi,"[Element Ni, Element Ti]",2,Ti2 Ni2,0.0,-0.38580461666666604,6.518078495566351
mp-1185167,LaP5,"[Element La, Element P]",2,La4 P20,0.11479999999999901,-0.67818758123011,3.834425811040429
mp-1192955,In6Se7,"[Element In, Element Se]",2,In12 Se14,0.46080000000000004,-0.6397181044951921,6.006894165950477
mp-1182516,Co2Mo3,"[Element Co, Element Mo]",2,Co4 Mo6,0.0,0.22787230766666602,9.694826830352481
mp-1179674,Re2O9,"[Element O, Element Re]",2,Re4 O18,0.0,-1.317161870000001,4.450476050541328
mp-1179959,Pb2O3,"[Element O, Element Pb]",2,Pb4 O6,0.924199999999999,-1.3756103679999971,9.983449104450775
mp-1192606,NbSe3,"[Element Nb, Element Se]",2,Nb6 Se18,0.0,-0.42263900683853906,3.024956187316661
mp-1195735,Te3As2,"[Element As, Element Te]",2,Te24 As16,0.6992,0.011116158749999001,5.802506753993863
mp-1180296,Mo2O7,"[Element Mo, Element O]",2,Mo4 O14,0.035999999999999005,-1.371603178888888,3.739996518104409
mp-1189177,P2S3,"[Element P, Element S]",2,P8 S12,2.2929,-0.19522719087797402,2.034640501307266
mp-1178867,VO3,"[Element O, Element V]",2,V6 O18,0.474599999999999,-1.5349586987500001,2.823953579758337
mp-1187848,Tl3Co,"[Element Co, Element Tl]",2,Tl6 Co2,0.0,0.509696574999999,10.27707770162392
mp-1192532,SiH2,"[Element H, Element Si]",2,Si10 H20,4.0154,0.033403332416666,0.9276544243991691
mp-1199016,Ga5Pt,"[Element Ga, Element Pt]",2,Ga40 Pt8,0.0,-0.30570694666666604,8.26269738217148
mp-1203602,Sb3O14,"[Element O, Element Sb]",2,Sb6 O28,0.47500000000000003,-0.052882981470587,4.144488469759185
mp-1193944,Tm2S3,"[Element S, Element Tm]",2,Tm12 S18,1.4546000000000001,-2.365855609354169,6.341236666266116
mp-1180019,PbO2,"[Element O, Element Pb]",2,Pb6 O12,0.6955,-0.8579809205555541,6.605120967336583
mp-1190583,NbS3,"[Element Nb, Element S]",2,Nb6 S18,0.0,-1.14945814645833,3.978460079867045
mp-1190719,Bi8Mo3,"[Element Bi, Element Mo]",2,Bi16 Mo6,0.0,0.35557316954544704,10.818472772950178
mp-1189810,Bi3Mo,"[Element Bi, Element Mo]",2,Bi12 Mo4,0.0,0.338743741249999,10.900963043587163
mp-1206313,TmO2,"[Element O, Element Tm]",2,Tm2 O4,0.0,-3.224511891666669,7.77154264545923
mp-1206244,LuO2,"[Element Lu, Element O]",2,Lu2 O4,0.0,-3.244072048888888,8.210136637249322
mp-1206677,Rb2O2,"[Element O, Element Rb]",2,Rb2 O2,0.0,-0.931913781249999,3.276134037648778
mp-1206610,YO2,"[Element O, Element Y]",2,Y2 O4,0.0,-3.112538538333332,4.502387421748615
mp-1213127,Ho5Cl11,"[Element Cl, Element Ho]",2,Ho20 Cl44,0.0,-2.058723174531248,5.2644734156389195
mp-1206243,HoO2,"[Element Ho, Element O]",2,Ho2 O4,0.0,-3.17857298333333,7.280398340840462
mp-1206731,DyO2,"[Element Dy, Element O]",2,Dy2 O4,0.0,-3.16420041722222,7.129919249791425
mp-1229215,Al11O18,"[Element Al, Element O]",2,Al22 O36,0.0,-3.131654437241379,3.061639523268742
mp-13451,Dy2Sb5,"[Element Dy, Element Sb]",2,Dy8 Sb20,0.0,-0.771230359047615,7.735184141244448
mp-1219538,Sb5O14,"[Element O, Element Sb]",2,Sb10 O28,0.0,-1.495126538421051,5.417725369839283
mp-1524302,HfIr,"[Element Hf, Element Ir]",2,Hf2 Ir2,0.0,-1.061796515000004,17.547390298237485
mp-1104493,TbZn12,"[Element Tb, Element Zn]",2,Tb1 Zn12,0.0,-0.21066344230769302,7.9751512282023675
mp-1104899,SmFe12,"[Element Fe, Element Sm]",2,Sm1 Fe12,0.0,0.023720881153847,8.06244281834127
mp-1104815,LaMg12,"[Element La, Element Mg]",2,La1 Mg12,0.0,-0.020290359615384,2.287417037954068
mp-1104551,DyZn12,"[Element Dy, Element Zn]",2,Dy1 Zn12,0.0,-0.206240618076925,8.024599954998697
mp-1104193,Be12Co,"[Element Be, Element Co]",2,Be12 Co1,0.0,-0.039066079999999004,2.653523648872987
mp-11241,DyAu2,"[Element Au, Element Dy]",2,Dy1 Au2,0.0,-0.8639723905555521,14.845537255307653
mp-11299,Cd2Hg,"[Element Cd, Element Hg]",2,Cd2 Hg1,0.0,0.004843204166666001,10.197257209982075
mp-1157,TaNi2,"[Element Ni, Element Ta]",2,Ta1 Ni2,0.0,-0.30562951244444503,12.782880545718758
mp-11454,Hf2Pd,"[Element Hf, Element Pd]",2,Hf2 Pd1,0.0,-0.531846506666667,13.394431575498581
mp-1147670,CuF2,"[Element Cu, Element F]",2,Cu1 F2,0.0,-1.710258549999999,2.028048170609508
mp-1147756,CuCl2,"[Element Cl, Element Cu]",2,Cu1 Cl2,0.0,-0.46160558499999804,1.6002934156393471
mp-1104792,MnBe12,"[Element Be, Element Mn]",2,Mn1 Be12,0.0,-0.062953709071618,2.5207910224986
mp-11387,HfGa3,"[Element Ga, Element Hf]",2,Hf1 Ga3,0.0,-0.41549907749999804,9.61250569630084
mp-11464,MgHg2,"[Element Hg, Element Mg]",2,Mg1 Hg2,0.0,-0.108657893333334,10.796871120123434
mp-1135,NbPd3,"[Element Nb, Element Pd]",2,Nb1 Pd3,0.0,-0.41910910249999805,11.10460341400929
mp-1104104,Be12Fe,"[Element Be, Element Fe]",2,Be12 Fe1,0.0,-0.046018346923077005,2.568896000308672
mp-1105500,BaGe3,"[Element Ba, Element Ge]",2,Ba4 Ge12,0.0,-0.31510297875000004,5.809681071584107
mp-1147532,CuBr2,"[Element Br, Element Cu]",2,Cu1 Br2,0.0,-0.45981051666666606,2.030989876068163
mp-1105049,TeMo6,"[Element Mo, Element Te]",2,Te2 Mo12,0.0,0.5029004274999961,9.049134228069011
mp-1104393,LuZn12,"[Element Lu, Element Zn]",2,Lu1 Zn12,0.0,-0.176222629743591,8.221497190180974
mp-1105,BaO2,"[Element Ba, Element O]",2,Ba1 O2,2.2352,-2.170192663333334,5.534178952108108
mp-11252,MnAu2,"[Element Au, Element Mn]",2,Mn1 Au2,0.0,-0.35741518482758206,14.831388091619958
mp-11567,ScZn12,"[Element Sc, Element Zn]",2,Sc1 Zn12,0.0,-0.136576282692307,7.194336635597737
mp-11416,TaGa3,"[Element Ga, Element Ta]",2,Ta1 Ga3,0.0,-0.20079970933333502,10.409066340930082
mp-11513,NbNi3,"[Element Nb, Element Ni]",2,Nb1 Ni3,0.0,-0.28360239000000204,9.17745354406204
mp-1172831,TiAu2,"[Element Au, Element Ti]",2,Ti1 Au2,0.261,1.605538301111115,2.1763420835076372
mp-1183088,Ac3Yb,"[Element Ac, Element Yb]",2,Ac3 Yb1,0.0,0.067072545625002,8.597257610253811
mp-1183083,Ac3Y,"[Element Ac, Element Y]",2,Ac3 Y1,0.0,0.058625999375003006,7.532052286652469
mp-1182537,B9C,"[Element B, Element C]",2,B9 C1,0.057600000000000005,2.531158007583333,0.17951794609426602
mp-1183084,Ac3Tm,"[Element Ac, Element Tm]",2,Ac3 Tm1,0.0,0.07230794895833201,8.621865772366718
mp-1183104,Ac3Nb,"[Element Ac, Element Nb]",2,Ac3 Nb1,0.0,0.556803858125,9.016807444368908
mp-1183200,Al3Sn,"[Element Al, Element Sn]",2,Al3 Sn1,0.0,0.163227461249999,4.238888157816572
mp-1183195,Al3Ge,"[Element Al, Element Ge]",2,Al3 Ge1,0.0,0.09748668375000001,3.715648585671171
mp-1183050,BaYb3,"[Element Ba, Element Yb]",2,Ba1 Yb3,0.0,0.341747769999997,7.773972511831115
mp-1178842,UO4,"[Element O, Element U]",2,U1 O4,0.0,-2.537767715999997,5.6694823510758905
mp-1183080,Ac3Ag,"[Element Ac, Element Ag]",2,Ac3 Ag1,0.0,0.077761538124995,8.698073655591466
mp-1183047,ZrU3,"[Element U, Element Zr]",2,Zr1 U3,0.0,0.376325807499995,15.457542638935509