material_id,formula_pretty,elements,nelements,composition,band_gap,formation_energy_per_atom,density
mp-14513,Ni8P3,"[Element Ni, Element P]",2,Ni32 P12,0.032,-0.44617218209956705,7.890951158012773
mp-2068,RhF3,"[Element F, Element Rh]",2,Rh2 F6,0.862599999999999,-1.7746290387499992,5.695310568602026
mp-28044,TmCl3,"[Element Cl, Element Tm]",2,Tm2 Cl6,4.918,-2.512653630624999,4.219658459152371
mp-2437,IrF3,"[Element F, Element Ir]",2,Ir2 F6,1.141099999999999,-1.485668521250001,8.501165743894461
mp-458,Ti2O3,"[Element O, Element Ti]",2,Ti4 O6,0.0,-3.303439634333334,4.602205288902889
mp-2826,Lu2S3,"[Element Lu, Element S]",2,Lu4 S6,2.5664,-2.354043240354164,6.310200559334407
mp-468,AlF3,"[Element Al, Element F]",2,Al2 F6,7.6012,-3.86576940625,3.264423327833108
mp-2552,TeO3,"[Element O, Element Te]",2,Te2 O6,1.150299999999999,-1.321559591666666,6.370962349341241
mp-28112,In5Cl9,"[Element Cl, Element In]",2,In10 Cl18,2.9777,-1.120648401607141,3.7543877791296962
mp-23933,AlH3,"[Element Al, Element H]",2,Al2 H6,2.197699999999999,-0.073632082812499,1.5174827710326961
mp-22375,In2S3,"[Element In, Element S]",2,In4 S6,0.280199999999999,-0.7216947956874971,4.849291744335146
mp-22398,FeF3,"[Element F, Element Fe]",2,Fe2 F6,3.1061,-2.648772015416667,3.813987565986234
mp-22323,In2O3,"[Element In, Element O]",2,In4 O6,0.9586000000000001,-1.973362810416667,7.194067376509533
mp-29013,Ca14Si19,"[Element Ca, Element Si]",2,Ca28 Si38,0.0,-0.515687350000002,2.442695743740953
mp-35200,AlO3,"[Element Al, Element O]",2,Al2 O6,0.0,-1.58718572,2.4548634744323863
mp-542781,Rb8Tl11,"[Element Rb, Element Tl]",2,Rb16 Tl22,0.0,-0.120511559035092,5.590574911555081
mp-541846,P4O9,"[Element O, Element P]",2,P16 O36,5.5902,-2.357238610274727,2.689658895042827
mp-560338,CrF3,"[Element Cr, Element F]",2,Cr2 F6,3.0453,-3.04001977,3.9089680584202062
mp-568488,Mo15Se19,"[Element Mo, Element Se]",2,Mo30 Se38,0.0,-0.563183698887869,6.072819426029648
mp-557771,SiO2,"[Element O, Element Si]",2,Si12 O24,2.4357,-2.656939221388889,1.5194185799856932
mp-569570,K8Tl11,"[Element K, Element Tl]",2,K16 Tl22,0.0,-0.117980349719302,5.347134009108789
mp-561428,NiF3,"[Element F, Element Ni]",2,Ni2 F6,0.0,-1.9116055650000001,4.538486231041057
mp-570025,Mg21Zn25,"[Element Mg, Element Zn]",2,Mg42 Zn50,0.0,-0.11549346173913001,4.3592684145589224
mp-562468,TiF3,"[Element F, Element Ti]",2,Ti2 F6,0.0,-3.667189233333333,2.893223428314993
mp-556027,SiO2,"[Element O, Element Si]",2,Si6 O12,2.9032,-2.743641011111111,1.623463761241191
mp-552113,V2O3,"[Element O, Element V]",2,V4 O6,0.0,-1.79997666,2.665176271631598
mp-557539,MoF3,"[Element F, Element Mo]",2,Mo2 F6,3.3753,-2.547664713749999,4.589391332934936
mp-541787,Na8Hg3,"[Element Hg, Element Na]",2,Na32 Hg12,0.0,-0.165423600909091,4.167494465199466
mp-559931,VF3,"[Element F, Element V]",2,V2 F6,1.6025,-3.238528048750001,3.61502830984717
mp-541384,MnF3,"[Element F, Element Mn]",2,Mn2 F6,0.0,-2.739207448232759,3.512425482702652
mp-559473,CoF3,"[Element Co, Element F]",2,Co2 F6,0.0,-2.0986184675,4.426189629558865
mp-542734,Rh2O3,"[Element O, Element Rh]",2,Rh4 O6,0.6193000000000001,-1.067203993999999,7.948458054063597
mp-556812,SiO2,"[Element O, Element Si]",2,Si6 O12,5.0183,-2.977546089444444,2.875565418313443
mp-557076,SiO2,"[Element O, Element Si]",2,Si12 O24,4.0901,-2.982064594444445,2.159865490302806
mp-588,GaF3,"[Element F, Element Ga]",2,Ga2 F6,4.7051,-2.85906879875,4.597691979853057
mp-714896,Cr3O,"[Element Cr, Element O]",2,Cr6 O2,0.0,0.08211364749999901,4.654227733984328
mp-640712,Rb8In11,"[Element In, Element Rb]",2,Rb16 In22,0.0,-0.132621815438595,3.946512228254023
mp-582929,K8In11,"[Element In, Element K]",2,K16 In22,0.0,-0.13286617585964702,3.431014452837174
mp-755021,ReO3,"[Element O, Element Re]",2,Re2 O6,0.0,-2.128877294375001,7.151499222634568
mp-705480,MnF4,"[Element F, Element Mn]",2,Mn6 F24,0.102399999999999,-2.32923356191954,3.471980807001796
mp-754759,Y2O3,"[Element O, Element Y]",2,Y4 O6,4.4468,-3.904430815499997,5.155299927103416
mp-571053,Al5Mo,"[Element Al, Element Mo]",2,Al10 Mo2,0.0,-0.266545990833332,4.224615540205753
mp-669510,Cd6Sb5,"[Element Cd, Element Sb]",2,Cd12 Sb10,0.0,0.39481244534090804,3.014138062277577
mp-684971,Nb11S12,"[Element Nb, Element S]",2,Nb22 S24,0.0,-1.09510688347826,10.289910533083733
mp-638035,SiO2,"[Element O, Element Si]",2,Si6 O12,0.0,-1.4424869522222221,3.222079185841289
mp-6949,InF3,"[Element F, Element In]",2,In2 F6,4.0226,-2.763129218749999,4.957041087807601
mp-755313,Sc2O3,"[Element O, Element Sc]",2,Sc4 O6,4.127599999999999,-3.932339745999999,3.891656453292744
mp-7570,RuF3,"[Element F, Element Ru]",2,Ru2 F6,0.0,-1.8176494025,5.380783307129731
mp-672684,Zn6Sb5,"[Element Sb, Element Zn]",2,Zn12 Sb10,0.0,0.20153907454545303,6.253368557678357
mp-684890,Tb4F15,"[Element F, Element Tb]",2,Tb8 F30,0.00019999999999900002,-3.754786340394736,4.998205448420107
mp-574458,Zr21Re25,"[Element Re, Element Zr]",2,Zr42 Re50,0.0,-0.34692920103261005,12.711754156498094
mp-685077,Fe2Te3,"[Element Fe, Element Te]",2,Fe4 Te6,0.0,-0.20550694799999902,9.133919150900539
mp-862869,Pa2S3,"[Element Pa, Element S]",2,Pa4 S6,0.0,-1.665343718687501,7.410740839917643
mp-770543,Mn2O3,"[Element Mn, Element O]",2,Mn4 O6,0.0,-1.949647783172413,4.869381483504672
mp-864675,Yb3N2,"[Element N, Element Yb]",2,Yb6 N4,0.34180000000000005,-1.5074439315000001,11.17753569079277
mp-864635,Ag2Cl3,"[Element Ag, Element Cl]",2,Ag4 Cl6,0.0,-0.499390825499999,4.6617796841379775
mp-866066,B2S3,"[Element B, Element S]",2,B4 S6,1.531499999999999,-0.630010007166665,1.954953488130494
mp-862982,Ag2Br3,"[Element Ag, Element Br]",2,Ag4 Br6,0.0,-0.589244397666665,5.725566588271111
mp-977351,Ac2S3,"[Element Ac, Element S]",2,Ac4 S6,3.0275,-2.440363970687502,5.562970721400395
mp-978093,Ho2S3,"[Element Ho, Element S]",2,Ho4 S6,2.4745,-2.368371556687498,5.695152638766892
mp-862796,Pu2S3,"[Element Pu, Element S]",2,Pu4 S6,0.0,-1.7902289219999932,7.248413701113994
mp-866083,Zr3N2,"[Element N, Element Zr]",2,Zr6 N4,0.0,-1.615370775500002,6.920666181673168
mp-867185,Pu3O2,"[Element O, Element Pu]",2,Pu6 O4,0.0,-1.859082592249993,13.617265745881404
mp-861979,Ir2S3,"[Element Ir, Element S]",2,Ir4 S6,1.137699999999999,-0.48724733868750103,9.693179459505735
mp-974381,Rh2S3,"[Element Rh, Element S]",2,Rh4 S6,0.4203,-0.6116225516875,6.144883119255724
mp-768247,PtO3,"[Element O, Element Pt]",2,Pt2 O6,0.0,-0.6081255025000001,9.105315939524148
mp-861945,Ag2F3,"[Element Ag, Element F]",2,Ag4 F6,0.0,-1.200418772999999,5.946934730142781
mp-7586,Ni3C,"[Element C, Element Ni]",2,Ni6 C2,0.0,0.084183336249999,8.149470559184525
mp-863259,Pm2S3,"[Element Pm, Element S]",2,Pm4 S6,2.4211,-2.333359986687497,4.6530611923082965
mp-952567,Fe2S3,"[Element Fe, Element S]",2,Fe4 S6,0.0,-0.6915412294999981,4.9040509576429745
mp-865439,Th3O2,"[Element O, Element Th]",2,Th6 O4,0.0,-2.301181843999998,11.60881096807817
mp-974355,Mn2S3,"[Element Mn, Element S]",2,Mn4 S6,0.0,-0.903138795480602,3.794306933412436
mp-978968,Ti3O2,"[Element O, Element Ti]",2,Ti6 O4,0.0,-2.352613252000002,5.221608301232395
mp-612740,In2Se3,"[Element In, Element Se]",2,In12 Se18,0.9903000000000001,-0.686687467770832,5.191105833931657
mp-2654,Al2S3,"[Element Al, Element S]",2,Al12 S18,2.817,-1.236182702020833,2.347476588351246
mp-568889,Ag2Se,"[Element Ag, Element Se]",2,Ag8 Se4,0.0,-0.0071180663541660005,7.323513446110628
mp-1101191,V3F10,"[Element F, Element V]",2,V6 F20,0.0,-3.088922595384615,3.143828603946789
mp-685049,IF7,"[Element F, Element I]",2,I4 F28,1.7321,-1.64495325375,3.86372797189604
mp-672673,In2Se3,"[Element In, Element Se]",2,In12 Se18,0.9081,-0.27934030877083404,3.727287401694141
mp-1207538,Zn17Co3,"[Element Co, Element Zn]",2,Zn51 Co9,0.0,-0.043618812451148,7.615494369969989
mp-27529,PI3,"[Element I, Element P]",2,P2 I6,2.2746,-0.341758141160712,3.905252359286758
mp-568495,Cu10Sn3,"[Element Cu, Element Sn]",2,Cu20 Sn6,0.0,0.021947803461537,8.842899312020343
mp-1078219,C3N4,"[Element C, Element N]",2,C3 N4,0.0,2.384034308214286,1.478616063997733
mp-1217878,Tb14Au51,"[Element Au, Element Tb]",2,Tb14 Au51,0.0,-0.6337849503589731,16.289132993021646
mp-1217188,U7Se12,"[Element Se, Element U]",2,U7 Se12,0.0,-1.458094862006572,9.20815356170625
mp-1217874,Tb14Ag51,"[Element Ag, Element Tb]",2,Tb14 Ag51,0.0,-0.23806717751281803,10.137232903473375
mp-1209515,Sr11Hg54,"[Element Hg, Element Sr]",2,Sr11 Hg54,0.0,-0.26430142976923604,10.833035512852746
mp-1216441,Zr14Cu51,"[Element Cu, Element Zr]",2,Zr14 Cu51,0.0,-0.16313380046153803,8.184391094835927
mp-1216365,Y14Ag51,"[Element Ag, Element Y]",2,Y14 Ag51,0.0,-0.243491059923077,8.651345959442326
mp-1220280,Pr14Au51,"[Element Au, Element Pr]",2,Pr14 Au51,0.0,-0.62809252328205,14.267750257900254
mp-1217575,Th14Ag51,"[Element Ag, Element Th]",2,Th14 Ag51,0.0,-0.14023077976922801,10.422723268114808
mp-1217439,Th7Se12,"[Element Se, Element Th]",2,Th7 Se12,0.0,-2.02113720730263,8.720971476046351
mp-1219385,Sm14Au51,"[Element Au, Element Sm]",2,Sm14 Au51,0.0,-0.632690324307692,15.729477414011066
mp-1217580,Th14Au51,"[Element Au, Element Th]",2,Th14 Au51,0.0,-0.621927917692307,16.766704117318557
mp-1218949,Sr14Hg51,"[Element Hg, Element Sr]",2,Sr14 Hg51,0.0,-0.351207155807697,10.543890856675631
mp-1219378,Sm14Ag51,"[Element Ag, Element Sm]",2,Sm14 Ag51,0.0,-0.254334374076923,9.524554993040084
mp-1217740,Th14Cu51,"[Element Cu, Element Th]",2,Th14 Cu51,0.0,-0.167180772923075,9.996335539635705
mp-1220249,Pr14Ag51,"[Element Ag, Element Pr]",2,Pr14 Ag51,0.0,-0.23547985782051,9.217957883255565
mp-1217388,Th7S12,"[Element S, Element Th]",2,Th7 S12,0.0,-2.272468649144738,7.726247700409517
mp-1220036,P7Rh12,"[Element P, Element Rh]",2,P7 Rh12,0.0,-0.6892885779385941,9.384343627482416
mp-684675,V12P7,"[Element P, Element V]",2,V12 P7,0.0,-0.891531118201753,5.735932299167162
mp-1224563,Ho14Ag51,"[Element Ag, Element Ho]",2,Ho14 Ag51,0.0,-0.22776911499999702,10.364916679299474
mp-1224756,Hf14Cu51,"[Element Cu, Element Hf]",2,Hf14 Cu51,0.0,-0.155761783538461,10.753300035415698
mp-1220721,Nd14Ag51,"[Element Ag, Element Nd]",2,Nd14 Ag51,0.0,-0.25395384707692104,9.240038801895253
mp-1225453,Er14Ag51,"[Element Ag, Element Er]",2,Er14 Ag51,0.0,-0.22715496284615103,9.933135926825262
mp-1220890,Nd14Au51,"[Element Au, Element Nd]",2,Nd14 Au51,0.0,-0.634578737461535,14.902186727647015
mp-505626,Cr12P7,"[Element Cr, Element P]",2,Cr12 P7,0.0,-0.37273138820175306,5.7855354446821625
mp-1225847,Dy14Ag51,"[Element Ag, Element Dy]",2,Dy14 Ag51,0.0,-0.23288634074358702,9.684003903903037
mp-1223670,La14Au51,"[Element Au, Element La]",2,La14 Au51,0.0,-0.6633894832307691,14.03114292039231
mp-20414,U7Te12,"[Element Te, Element U]",2,U7 Te12,0.0,-1.096341625526322,9.018424459913865
mp-1225861,Dy14Au51,"[Element Au, Element Dy]",2,Dy14 Au51,0.0,-0.6271088494358951,16.46376302641879
mp-1227899,Ca14Hg51,"[Element Ca, Element Hg]",2,Ca14 Hg51,0.0,-0.323119520461533,10.637790848427937
mp-9521,Th7Te12,"[Element Te, Element Th]",2,Th7 Te12,0.0,-1.45078965684211,8.73197137434463
mp-1268190,NaSi6,"[Element Na, Element Si]",2,Na1 Si6,0.0,0.319756962456896,2.890739251201148
mp-530546,SiO2,"[Element O, Element Si]",2,Si54 O108,5.562,-3.255606834197531,1.636875152850781
mp-1025387,TbO3,"[Element O, Element Tb]",2,Tb2 O6,0.156399999999999,-2.045014071666666,5.359250219626467
mp-1025483,ErO3,"[Element Er, Element O]",2,Er2 O6,0.20980000000000001,-2.077117393749999,5.896363928159246
mp-1014345,Cr3N4,"[Element Cr, Element N]",2,Cr6 N8,0.0,-0.558815138035717,5.063296418303881
mp-1094481,Mg4Ti3,"[Element Mg, Element Ti]",2,Mg8 Ti6,0.0,0.147450648571428,2.816126952901704
mp-1025421,SmO3,"[Element O, Element Sm]",2,Sm2 O6,0.15380000000000002,-1.9860494700000002,4.7894367327767675
mp-1182484,C3N4,"[Element C, Element N]",2,C6 N8,5.0405,0.5848164510714281,0.38105641260327106
mp-1025565,HoO3,"[Element Ho, Element O]",2,Ho2 O6,0.1889,-2.062738198749999,5.701386902479575
mp-1205524,Ho3Ru2,"[Element Ho, Element Ru]",2,Ho6 Ru4,0.0,-0.286031924999996,9.897856186479736
mp-1014558,Cr3N4,"[Element Cr, Element N]",2,Cr6 N8,0.0,-0.530363914464288,3.998765296240129
mp-1094226,Zr4Sn3,"[Element Sn, Element Zr]",2,Zr8 Sn6,0.0,-0.27521154657143004,7.19547297628598
mp-1178953,TmO3,"[Element O, Element Tm]",2,Tm2 O6,0.20350000000000001,-2.094708850000001,6.056440930828505
mp-1105170,SnBr2,"[Element Br, Element Sn]",2,Sn6 Br12,2.4179,-1.171437953888886,4.545169576540089
mp-1094379,Mg4Ti3,"[Element Mg, Element Ti]",2,Mg8 Ti6,0.0,0.19257165857142802,2.867260093999498
mp-1080197,Mn3N4,"[Element Mn, Element N]",2,Mn6 N8,0.0,-0.12126027236761301,5.273812364539136
mp-1016071,Cr3N4,"[Element Cr, Element N]",2,Cr18 N24,0.0,-0.067284735654764,1.414281867419831
mp-1094365,Mg3Ti4,"[Element Mg, Element Ti]",2,Mg6 Ti8,0.0,0.21747072738095102,3.265030530320734
mp-1094398,Mg3Ti4,"[Element Mg, Element Ti]",2,Mg6 Ti8,0.0,0.13445568880952302,3.3172145225758563
mp-1104504,Nb3Te4,"[Element Nb, Element Te]",2,Nb6 Te8,0.0,-0.40895606952380903,5.930987334677184
mp-1180065,NdO3,"[Element Nd, Element O]",2,Nd2 O6,0.14070000000000002,-1.945172913125,4.407801479010277
mp-1204241,Ca3Ge4,"[Element Ca, Element Ge]",2,Ca18 Ge24,0.33119999999999905,-0.657808381666668,4.002777150072807
mp-1205565,Tm3Ru2,"[Element Ru, Element Tm]",2,Tm6 Ru4,0.0,-0.322565119000004,10.26949496217561
mp-1080199,V3N4,"[Element N, Element V]",2,V6 N8,0.0,-0.9825537337499971,4.57195464676971
mp-1094315,Zr4Sn3,"[Element Sn, Element Zr]",2,Zr8 Sn6,0.0,-0.399345159428573,7.433503045889425
mp-1180348,Mo3O10,"[Element Mo, Element O]",2,Mo6 O20,0.0,-1.6241278503846162,3.762420102892848
mp-1249090,SiO2,"[Element O, Element Si]",2,Si34 O68,5.7956,-3.249933492745097,1.41511351140876
mp-1206285,Dy3Ru2,"[Element Dy, Element Ru]",2,Dy6 Ru4,0.0,-0.27274636699999605,9.67744140822416
mp-1228211,Ba5Ga6,"[Element Ba, Element Ga]",2,Ba10 Ga12,0.0,-0.411085470454545,4.70758203783911
mp-1214046,Ca3Si4,"[Element Ca, Element Si]",2,Ca18 Si24,0.4162,-0.524621054523811,2.4637455261514383
mp-1206483,EuO3,"[Element Eu, Element O]",2,Eu2 O6,0.0,-1.7041324487500011,4.280497222159486
mp-1238832,ZnCl3,"[Element Cl, Element Zn]",2,Zn2 Cl6,0.0,-0.7919883887499981,2.3545417076245
mp-1205980,Lu3Ru2,"[Element Lu, Element Ru]",2,Lu6 Ru4,0.0,-0.34540949200000004,10.735527011492287
mp-23183,NdCl3,"[Element Cl, Element Nd]",2,Nd2 Cl6,4.299799999999999,-2.585905556250001,4.047814797196159
mp-1205786,Y3Ru2,"[Element Ru, Element Y]",2,Y6 Ru4,0.0,-0.230452114,6.488941875572892
mp-1214158,CF,"[Element C, Element F]",2,C24 F24,4.467,-0.882643504062501,2.086242522748225
mp-1206099,YO3,"[Element O, Element Y]",2,Y2 O6,0.194799999999999,-2.0104380375,3.63214598127663
mp-1205900,CeO3,"[Element Ce, Element O]",2,Ce2 O6,0.0,-2.434195327499999,5.386145641533107
mp-22896,LaCl3,"[Element Cl, Element La]",2,La2 Cl6,3.6454,-2.703267628124999,3.780331417017139
mp-12627,Nb3S4,"[Element Nb, Element S]",2,Nb6 S8,0.0,-1.386860086428572,4.889994234425116
mp-22918,PuCl3,"[Element Cl, Element Pu]",2,Pu2 Cl6,0.0,-2.3443700303125,5.78268157608004
mp-1206505,GdO3,"[Element Gd, Element O]",2,Gd2 O6,0.0,-1.766396052499999,5.889186259907824
mp-23166,NpBr3,"[Element Br, Element Np]",2,Np2 Br6,0.0,-1.8072203021875,6.46420538722708
mp-1985,C3N4,"[Element C, Element N]",2,C6 N8,3.1949,0.33613873464285604,3.501429834147895
mp-2004,Cu10Sb3,"[Element Cu, Element Sb]",2,Cu20 Sb6,0.0,0.049920264230770006,8.785314968162782
mp-13852,Ge3N4,"[Element Ge, Element N]",2,Ge6 N8,1.9025999999999992,-0.192389701428573,5.256243436544102
mp-23184,BCl3,"[Element B, Element Cl]",2,B2 Cl6,4.7135,-1.0426612775,1.768826017474073
mp-23211,PrCl3,"[Element Cl, Element Pr]",2,Pr2 Cl6,4.3454000000000015,-2.592783406041665,3.919534134106673
mp-23265,GdCl3,"[Element Cl, Element Gd]",2,Gd2 Cl6,2.0054,-2.506313930624998,4.459738773488724
mp-23255,UBr3,"[Element Br, Element U]",2,U2 Br6,0.0,-1.6926844325000001,6.394416955410755
mp-23225,BBr3,"[Element B, Element Br]",2,B2 Br6,3.8273,-0.927507426041666,3.160863752001252
mp-27972,AcBr3,"[Element Ac, Element Br]",2,Ac2 Br6,4.103299999999999,-2.494519163125,5.679086211676529
mp-23189,BI3,"[Element B, Element I]",2,B2 I6,2.6901,-0.347344851041667,3.787581409278581
mp-23278,NpCl3,"[Element Cl, Element Np]",2,Np2 Cl6,0.047299999999999,-2.3544468428125,5.544282374483518
mp-23208,UCl3,"[Element Cl, Element U]",2,U2 Cl6,0.0,-2.210535621874999,5.452598976458763
mp-23221,PrBr3,"[Element Br, Element Pr]",2,Pr2 Br6,3.429599999999999,-2.306216135416666,5.105600024557783
mp-31198,Er3Ru2,"[Element Er, Element Ru]",2,Er6 Ru4,0.0,-0.310436744999996,10.306872721564023
mp-27971,AcCl3,"[Element Ac, Element Cl]",2,Ac2 Cl6,5.0865,-2.788094297499999,4.724438632804964
mp-510099,In3Au10,"[Element Au, Element In]",2,In6 Au20,0.0,-0.139674372692306,16.174538668274902
mp-30597,Cu10Sn3,"[Element Cu, Element Sn]",2,Cu20 Sn6,0.0,0.03160750653846,9.1398662780113
mp-31257,Mo15S19,"[Element Mo, Element S]",2,Mo30 S38,0.0,-0.727699676130511,4.7343166895739905
mp-23263,LaBr3,"[Element Br, Element La]",2,La2 Br6,2.9266,-2.423042803749999,4.962730462902288
mp-723463,LaO3,"[Element La, Element O]",2,La2 O6,0.6060999999999991,-2.03022052,5.368807035045697
mp-570170,Mo15Se19,"[Element Mo, Element Se]",2,Mo30 Se38,0.0,-0.5648101484466911,6.123546913359304
mp-7564,Nb3Te4,"[Element Nb, Element Te]",2,Nb6 Te8,0.0,-0.702980005238097,7.014785615392115
mp-540855,Rb6O,"[Element O, Element Rb]",2,Rb24 O4,0.0,-0.51585459642857,1.820603394621344
mp-642855,Mg3Ge,"[Element Ge, Element Mg]",2,Mg6 Ge2,0.0,-0.11605399375000101,2.715277621487484
mp-542854,Mg9Si5,"[Element Mg, Element Si]",2,Mg18 Si10,0.0,-0.063724994285713,2.201010748768985
mp-569895,EuCl3,"[Element Cl, Element Eu]",2,Eu2 Cl6,0.0,-2.125660104375001,4.194991601878781
mp-582011,CeCl3,"[Element Ce, Element Cl]",2,Ce2 Cl6,0.011099999999999001,-2.567102358125,3.9048669185460962
mp-680184,TaSe2,"[Element Se, Element Ta]",2,Ta52 Se104,0.0,-0.9227908718194451,7.81446005866545
mp-561,Nb3Se4,"[Element Nb, Element Se]",2,Nb6 Se8,0.0,-0.9978607266071431,6.33261733403146
mp-720472,PrO3,"[Element O, Element Pr]",2,Pr2 O6,0.6315000000000001,-1.938387684166666,5.181547997614971
mp-569850,CeBr3,"[Element Br, Element Ce]",2,Ce2 Br6,0.0,-2.261770134999998,5.062676127265132
mp-643067,Mg3Sn,"[Element Mg, Element Sn]",2,Mg18 Sn6,0.0,-0.08914980999999901,3.48149834301621
mp-568170,TbCl3,"[Element Cl, Element Tb]",2,Tb2 Cl6,4.1024,-2.532088784374998,4.582292922948664
mp-646059,C13Cl3,"[Element C, Element Cl]",2,C156 Cl36,2.1018,0.19743100061197902,1.886254595233897
mp-583712,Si3N4,"[Element N, Element Si]",2,Si18 N24,2.5275,-0.6860600399999991,1.271217499725204
mp-638048,Mo9Se11,"[Element Mo, Element Se]",2,Mo18 Se22,0.0,-0.5535340112343731,5.92939676784113
mp-9227,Ti3Se4,"[Element Se, Element Ti]",2,Ti6 Se8,0.0,-1.483433699910714,5.025391151799588
mp-988,Si3N4,"[Element N, Element Si]",2,Si6 N8,4.2503,-1.320943462857144,3.202079639858874
mp-799,V3S4,"[Element S, Element V]",2,V6 S8,0.0,-1.300097730714278,4.029684720166832
mp-554498,SiO2,"[Element O, Element Si]",2,Si12 O24,0.5051,-2.381915195833333,2.052495757493227
mp-555355,SiO2,"[Element O, Element Si]",2,Si12 O24,1.2633,-2.474478113055556,2.253858050320162
mp-555823,SiO2,"[Element O, Element Si]",2,Si12 O24,1.235,-2.481692340833333,2.143859779021687
mp-1080864,CeSe2,"[Element Ce, Element Se]",2,Ce12 Se24,0.4771,-1.318400687951387,2.466890059852839
mp-18536,AgF3,"[Element Ag, Element F]",2,Ag6 F18,0.20849999999999902,-1.128947433749999,4.91226665319555
mp-1212499,Hf5Ir3,"[Element Hf, Element Ir]",2,Hf30 Ir18,0.0,-0.824096651666668,16.15195197651729
mp-30749,Zr5Ir3,"[Element Ir, Element Zr]",2,Zr30 Ir18,0.0,-0.8586421139583341,10.963963626772717
mp-1257168,SiO2,"[Element O, Element Si]",2,Si60 O120,5.5917,-3.244101313555555,1.5798091795262081
mp-942,AuF3,"[Element Au, Element F]",2,Au6 F18,1.5542,-1.101981742499999,6.914663849512653
mp-554243,SiO2,"[Element O, Element Si]",2,Si6 O12,5.627,-3.255925031666667,1.85141465891091