material_id,formula_pretty,elements,nelements,composition,band_gap,formation_energy_per_atom,density
mp-11508,MoP4,"[Element Mo, Element P]",2,Mo2 P8,0.0,-0.37985946338095106,4.49541840255292
mp-1104500,Sm5Ir2,"[Element Ir, Element Sm]",2,Sm10 Ir4,0.0,-0.648043249285714,9.722644809886724
mp-1104420,Tb5Ru2,"[Element Ru, Element Tb]",2,Tb10 Ru4,0.0,-0.33699615190476,9.0176852701357
mp-1104821,Pr5Co2,"[Element Co, Element Pr]",2,Pr10 Co4,0.0,0.056821945952382005,7.011973944848403
mp-11684,SiO2,"[Element O, Element Si]",2,Si8 O16,5.5458,-3.259105474166666,2.90589968123047
mp-1179128,SrO6,"[Element O, Element Sr]",2,Sr2 O12,0.0,-0.85503057,2.958131441866196
mp-1173629,Nb11S12,"[Element Nb, Element S]",2,Nb22 S24,0.0,-0.7081621015217391,4.825665315666877
mp-1178873,V2O3,"[Element O, Element V]",2,V4 O6,0.5464,-2.288716576999999,4.453419073967361
mp-1104937,Pr5Ru2,"[Element Pr, Element Ru]",2,Pr10 Ru4,0.0,-0.194730699047616,7.392629549824779
mp-1179143,SrO6,"[Element O, Element Sr]",2,Sr2 O12,0.0,-0.867746667857143,2.802392833859326
mp-1104805,Dy5Ir2,"[Element Dy, Element Ir]",2,Dy10 Ir4,0.0,-0.6525377819047571,10.803314008510842
mp-1178416,CrO,"[Element Cr, Element O]",2,Cr2 O2,0.0,-1.8794044475,4.499373304647302
mp-1104525,NdAu6,"[Element Au, Element Nd]",2,Nd2 Au12,0.0,-0.41539709607142805,15.92973504505858
mp-1104669,Ca5Pd2,"[Element Ca, Element Pd]",2,Ca10 Pd4,0.0,-0.477749015714284,3.249258496938914
mp-1167,CF4,"[Element C, Element F]",2,C2 F8,9.0653,-1.904165606,2.379130408205632
mp-1178852,V2O3,"[Element O, Element V]",2,V4 O6,1.1029,-2.226020979,3.3420117250409263
mp-1178903,VF3,"[Element F, Element V]",2,V2 F6,1.6883,-3.235541796249999,3.350707791134627
mp-1105081,Tm5Ir2,"[Element Ir, Element Tm]",2,Tm10 Ir4,0.0,-0.7115046914285751,11.559697942579769
mp-1179088,TeO3,"[Element O, Element Te]",2,Te2 O6,0.0,-0.036543945416666,1.324162826646972
mp-1104687,Ho5Ir2,"[Element Ho, Element Ir]",2,Ho10 Ir4,0.0,-0.6688126042857101,11.129739301109906
mp-1178684,YO2,"[Element O, Element Y]",2,Y2 O4,0.33430000000000004,-3.013687436666666,3.849535106002301
mp-1180929,Lu2S3,"[Element Lu, Element S]",2,Lu4 S6,2.5165,-2.211967699354164,5.071397048862857
mp-1179608,SO4,"[Element O, Element S]",2,S2 O8,0.0,-1.0034330285,2.09016963107094
mp-1179948,PdF3,"[Element F, Element Pd]",2,Pd2 F6,0.0,-0.353061867500001,1.896273225937549
mp-1179720,RhF3,"[Element F, Element Rh]",2,Rh2 F6,0.0,-1.415517396249999,3.843320234978255
mp-1181931,CrF3,"[Element Cr, Element F]",2,Cr2 F6,3.7828,-2.8652394375,2.073272075549779
mp-1179342,SnH4,"[Element H, Element Sn]",2,Sn2 H8,5.4373000000000005,0.11932935300000101,2.243530581125302
mp-1196265,SO6,"[Element O, Element S]",2,S6 O36,0.0,-0.302854109880952,2.099277427174703
mp-1179856,PtO6,"[Element O, Element Pt]",2,Pt2 O12,0.0,-0.138445659285714,5.167199582784042
mp-1179375,TiF3,"[Element F, Element Ti]",2,Ti2 F6,0.2752,-3.440694612083333,2.3263372181163
mp-1181390,GaF3,"[Element F, Element Ga]",2,Ga2 F6,0.0,-0.813452591249999,1.307149211849059
mp-1179268,Ti2O3,"[Element O, Element Ti]",2,Ti4 O6,0.41650000000000004,-2.925152536333333,3.520071328829435
mp-1182499,B5I,"[Element B, Element I]",2,B20 I4,0.099499999999999,0.574756913611111,3.186671595380184
mp-1183007,AlF3,"[Element Al, Element F]",2,Al2 F6,7.4905,-3.85647464125,3.025755973150855
mp-1185842,MgAg2,"[Element Ag, Element Mg]",2,Mg2 Ag4,0.0,-0.156746121111109,7.520334357476024
mp-1195825,SiBr2,"[Element Br, Element Si]",2,Si12 Br24,2.3639,-1.016859544722223,2.830636761611559
mp-1181863,Cr2O3,"[Element Cr, Element O]",2,Cr4 O6,1.2217,-2.042377458999999,3.534352014305058
mp-1189723,NaSi,"[Element Na, Element Si]",2,Na8 Si8,1.2787,-0.019721125775862002,1.8731468275359051
mp-1182416,CoF3,"[Element Co, Element F]",2,Co2 F6,0.1612,-2.020514255,3.900767126067811
mp-1191789,MgO,"[Element Mg, Element O]",2,Mg12 O12,3.304,-2.872653976666667,2.141786909352879
mp-1196893,B3Pd16,"[Element B, Element Pd]",2,B6 Pd32,0.0,-0.211636451447367,10.85603187875749
mp-1182164,BaO6,"[Element Ba, Element O]",2,Ba2 O12,0.0,-0.875160372142858,3.077853165169779
mp-1179696,RuF3,"[Element F, Element Ru]",2,Ru2 F6,0.291599999999999,-1.558044417499999,3.078483088484703
mp-1190322,P4N7,"[Element N, Element P]",2,P8 N14,0.0,-0.271253393809525,3.498972758178528
mp-1185886,MgHg2,"[Element Hg, Element Mg]",2,Mg2 Hg4,0.0,-0.10602562833333601,10.773949495417053
mp-1179706,Rh2O3,"[Element O, Element Rh]",2,Rh4 O6,0.108,-0.529346629999999,4.613313316126916
mp-1194272,ZrF4,"[Element F, Element Zr]",2,Zr6 F24,4.6108,-4.024208787333333,4.531921459663134
mp-1181783,FeF3,"[Element F, Element Fe]",2,Fe2 F6,3.002799999999999,-2.6289299550000003,3.433776364934121
mp-1182169,BaO6,"[Element Ba, Element O]",2,Ba2 O12,0.0534,-0.8982260400000001,3.220694357357681
mp-1181342,Ga2O3,"[Element Ga, Element O]",2,Ga4 O6,0.47070000000000006,-0.38845934599999904,3.118962667248964
mp-1181824,Fe2O3,"[Element Fe, Element O]",2,Fe4 O6,1.687699999999999,-1.538964844,3.583671254474903
mp-1182923,Al2O3,"[Element Al, Element O]",2,Al4 O6,4.5868,-3.330630330999999,2.856850861285552
mp-1190549,GeO2,"[Element Ge, Element O]",2,Ge8 O16,3.2454,-2.047458357083334,4.40247893675949
mp-1200162,C41F14,"[Element C, Element F]",2,C164 F56,1.2343,-0.32602227925,2.015824331515793
mp-1197742,In2Te5,"[Element In, Element Te]",2,In12 Te30,0.8515,-0.327354584285715,5.54735334846334
mp-1202007,Sn3S7,"[Element S, Element Sn]",2,Sn12 S28,0.0,-0.156059958999998,1.617088086990735
mp-1210665,Lu5Ru2,"[Element Lu, Element Ru]",2,Lu10 Ru4,0.0,-0.431323702619051,10.781767542251433
mp-1217859,Tb2F15,"[Element F, Element Tb]",2,Tb4 F30,0.102899999999999,-2.053295566029413,3.431347703492092
mp-1209717,TiF6,"[Element F, Element Ti]",2,Ti2 F12,2.9814,-2.379295843333333,1.407114488875756
mp-1217192,Ti2S3,"[Element S, Element Ti]",2,Ti8 S12,0.0,-1.680487956333333,3.654237267616948
mp-1212478,H3O2,"[Element H, Element O]",2,H12 O8,3.830199999999999,-1.109682724249999,1.508836803787709
mp-1214861,AlH6,"[Element Al, Element H]",2,Al2 H12,0.0,0.9666264226785701,0.21499811998897903
mp-1205393,AlO3,"[Element Al, Element O]",2,Al4 O12,0.0,-1.461905772499999,2.221926169610995
mp-1206573,K3Bi2,"[Element Bi, Element K]",2,K6 Bi4,0.0,-0.46345558025000105,4.239446323865866
mp-1208439,TbF4,"[Element F, Element Tb]",2,Tb6 F24,0.0,-3.443243420999999,5.153833441296442
mp-1207251,Rb3Bi2,"[Element Bi, Element Rb]",2,Rb6 Bi4,0.0,-0.304667488500002,4.726737046320532
mp-1213323,Dy6Cl13,"[Element Cl, Element Dy]",2,Dy12 Cl26,0.0,-2.103667858815787,5.232803135337457
mp-1208424,TeBr4,"[Element Br, Element Te]",2,Te8 Br32,2.5242,-0.812674219083331,4.0308407184375294
mp-1209625,PuF4,"[Element F, Element Pu]",2,Pu6 F24,0.0,-3.936220456416667,7.114209423257432
mp-1211632,KC2,"[Element C, Element K]",2,K2 C4,0.0707,1.284584747687502,1.458410360126428
mp-1213622,FeF6,"[Element F, Element Fe]",2,Fe2 F12,0.5263,-1.5970489985714291,2.785641977932983
mp-1221467,MoO4,"[Element Mo, Element O]",2,Mo2 O8,0.0,-1.033319376,3.522795085579684
mp-1214262,C5F6,"[Element C, Element F]",2,C40 F48,2.9654,-1.08207659931818,1.9684143365046571
mp-1214755,BPd6,"[Element B, Element Pd]",2,B2 Pd12,0.0,-0.19524489249999502,10.949172289506455
mp-1225835,Cu2S,"[Element Cu, Element S]",2,Cu4 S2,0.0,-0.15517892260416702,5.441582860881794
mp-1233,Cu6Sn5,"[Element Cu, Element Sn]",2,Cu12 Sn10,0.0,0.023065760909089003,8.327226280785457
mp-12787,SiO2,"[Element O, Element Si]",2,Si6 O12,5.6273,-3.270059158333334,2.638756646234437
mp-1271821,Fe3O4,"[Element Fe, Element O]",2,Fe12 O16,1.0229,-1.620945976785714,4.895509829492854
mp-1238837,BH,"[Element B, Element H]",2,B24 H24,0.0,0.007961881155302001,0.9712419844862981
mp-1238971,Tb2F15,"[Element F, Element Tb]",2,Tb4 F30,0.5699999999999991,-2.002208221911767,3.62828536372996
mp-1272524,CrO,"[Element Cr, Element O]",2,Cr4 O4,1.5811000000000002,-1.9229498662500002,4.483018321390567
mp-1209757,RhF6,"[Element F, Element Rh]",2,Rh2 F12,0.740899999999999,-0.9820499892857131,2.102278798012739
mp-1388415,CrF5,"[Element Cr, Element F]",2,Cr2 F10,0.7746999999999991,-2.254646123333332,2.652964590189428
mp-1406655,MoF5,"[Element F, Element Mo]",2,Mo2 F10,2.0761,-2.5718232816666653,3.559304753231562
mp-1786164,SnF4,"[Element F, Element Sn]",2,Sn2 F8,2.4711,-2.440034417000001,4.734081322258993
mp-1281832,CoO2,"[Element Co, Element O]",2,Co2 O4,1.026399999999999,-0.9991842650000001,2.9176434484240192
mp-1386198,WF5,"[Element F, Element W]",2,W2 F10,3.0418,-2.713184335833334,5.154674681468494
mp-13871,P2Pt5,"[Element P, Element Pt]",2,P4 Pt10,0.0,-0.44480274013605803,15.90021170153706
mp-1401938,SnF4,"[Element F, Element Sn]",2,Sn2 F8,2.1529,-2.436254024000001,4.734018414732377
mp-1780502,VO2,"[Element O, Element V]",2,V4 O8,1.1092,-2.317896185000001,3.724978392287218
mp-2019077,Pd5Pb3,"[Element Pb, Element Pd]",2,Pd10 Pb6,0.0,-0.27768595499999504,12.565693058778244
mp-1428,Ni5Ge3,"[Element Ge, Element Ni]",2,Ni10 Ge6,0.0,-0.27314263875,8.775136487597724
mp-1975157,VO2,"[Element O, Element V]",2,V6 O12,0.14219999999999902,-2.445113867777777,4.097718330590563
mp-1975342,VO2,"[Element O, Element V]",2,V6 O12,0.0,-2.444027456111112,4.068730624146817
mp-1977753,YO2,"[Element O, Element Y]",2,Y2 O4,0.0,-2.9775101250000002,3.64373768394539
mp-1705,Sb2O5,"[Element O, Element Sb]",2,Sb4 O10,0.5057,-1.74803409,6.67669459753784
mp-1303934,Mn2O3,"[Element Mn, Element O]",2,Mn4 O6,0.0,-1.9553157751724122,4.8385951634476445
mp-1306224,Mn2O3,"[Element Mn, Element O]",2,Mn4 O6,0.3511,-1.9636023541724121,4.82254907658826
mp-1443442,VF5,"[Element F, Element V]",2,V2 F10,2.5453,-2.775659463333334,2.5820384142348702
mp-1283030,FeO,"[Element Fe, Element O]",2,Fe4 O4,1.7989000000000002,-1.46745752625,5.559935898062442
mp-16713,Pr2B5,"[Element B, Element Pr]",2,Pr8 B20,0.0,-0.5469307311904731,5.711001357558811
mp-1819,SbO2,"[Element O, Element Sb]",2,Sb4 O8,2.028799999999999,-1.839006646249989,6.645553853260452
mp-1419,S5N6,"[Element N, Element S]",2,S10 N12,2.2957,0.45019734903409003,1.8459999767547792
mp-1575,CaC2,"[Element C, Element Ca]",2,Ca2 C4,2.0383,-0.13803003333333302,2.199846562628209
mp-2017611,BaO6,"[Element Ba, Element O]",2,Ba2 O12,0.0177,-0.8982260400000001,3.399564978441192
mp-2016632,Ce2Mg,"[Element Ce, Element Mg]",2,Ce4 Mg2,0.0,0.009488996666666001,6.076396958013451
mp-22749,Mn5C2,"[Element C, Element Mn]",2,Mn10 C4,0.0,-0.0028497003758830002,7.697623798261953
mp-21325,KO2,"[Element K, Element O]",2,K2 O4,0.1547,-0.9414102990833331,2.06561693280497
mp-28256,V2Se9,"[Element Se, Element V]",2,V4 Se18,0.722,-0.45850979786931906,4.717982682057983
mp-2617,B2Pd5,"[Element B, Element Pd]",2,B4 Pd10,0.0,-0.25966439285714005,10.538854341111708
mp-2402,NaSi,"[Element Na, Element Si]",2,Na8 Si8,1.1286,-0.069361268125,1.7786768064981051
mp-27148,BeP2,"[Element Be, Element P]",2,Be8 P16,0.836199999999999,-0.319383066011903,2.492746734235346
mp-27467,Ta6S,"[Element S, Element Ta]",2,Ta24 S4,0.0,-0.32878273628571103,15.104594012751559
mp-28709,C15S4,"[Element C, Element S]",2,C120 S32,1.519499999999999,0.28542169766917,1.578514129877359
mp-2767639,FeO,"[Element Fe, Element O]",2,Fe4 O4,0.0,-1.251459924375,6.094628687167423
mp-23257,IF5,"[Element F, Element I]",2,I10 F50,4.6921,-1.969305789499999,4.042263051913207
mp-2794,Fe5C2,"[Element C, Element Fe]",2,Fe10 C4,0.0,0.05985946571428501,7.786991688505326
mp-27857,PdBr2,"[Element Br, Element Pd]",2,Pd8 Br16,0.9792000000000001,-0.694771309999999,5.01153034644285
mp-28268,PtI3,"[Element I, Element Pt]",2,Pt4 I12,0.3481,-0.431066994375,6.8077023374121834
mp-2752817,NpCl4,"[Element Cl, Element Np]",2,Np2 Cl8,1.1679,-2.054876324749997,4.795561131860325
mp-287,UF4,"[Element F, Element U]",2,U6 F24,0.0,-4.028010356333334,6.688155085214805
mp-2746678,GeBr2,"[Element Br, Element Ge]",2,Ge8 Br16,2.8296,-0.5738714741666671,3.8833326720684562
mp-28266,P2Pd,"[Element P, Element Pd]",2,P4 Pd2,0.34189999999999904,-0.42824703142857,5.538126998604
mp-2843,SnF2,"[Element F, Element Sn]",2,Sn8 F16,3.2704,-2.375956695416668,5.020367680433202
mp-27436,PaCl5,"[Element Cl, Element Pa]",2,Pa2 Cl10,2.4189,-2.01935245125,3.523176061933344
mp-29711,Tl2Te3,"[Element Te, Element Tl]",2,Tl4 Te6,0.638899999999999,-0.44422730733333504,7.55838652494405
mp-31034,ThF4,"[Element F, Element Th]",2,Th6 F24,6.529,-4.425086677666665,6.155518768889077
mp-30367,Ca5Au2,"[Element Au, Element Ca]",2,Ca10 Au4,0.0,-0.572746819285717,4.433039911930223
mp-30622,Dy5Ru2,"[Element Dy, Element Ru]",2,Dy10 Ru4,0.0,-0.34900407904761305,9.471948618390487
mp-31050,Cl2O7,"[Element Cl, Element O]",2,Cl4 O14,3.6753,-0.30258604611111,2.356081884394688
mp-32570,Al2O3,"[Element Al, Element O]",2,Al16 O24,4.1416,-3.387026966500001,3.695231826720428
mp-30987,V3O5,"[Element O, Element V]",2,V12 O20,0.0,-2.493302489374999,4.749338272156889
mp-28878,RbTe6,"[Element Rb, Element Te]",2,Rb2 Te12,0.0,-0.26189561250000104,5.340348523042697
mp-30826,Pd13Pb9,"[Element Pb, Element Pd]",2,Pd26 Pb18,0.0,-0.260624321846586,12.340845582500602
mp-30523,Ta3As,"[Element As, Element Ta]",2,Ta24 As8,0.0,-0.37453832331249903,14.938305807648833
mp-32566,Si3O,"[Element O, Element Si]",2,Si12 O4,0.1592,-0.776401148124999,2.129468934348686
mp-31033,HfF4,"[Element F, Element Hf]",2,Hf6 F24,5.4058,-4.101514556333337,7.1528065020476514
mp-3216704,Yb2S3,"[Element S, Element Yb]",2,Yb4 S6,2.5394,-2.3316929006875,6.2209958009330855
mp-32654,Sc2Te3,"[Element Sc, Element Te]",2,Sc4 Te6,0.0,-1.4393607169999991,5.157851090136462
mp-540783,OsO4,"[Element O, Element Os]",2,Os2 O8,3.2877,-1.528394766999996,5.386723342623542
mp-542844,V2O5,"[Element O, Element V]",2,V4 O10,1.396,-2.228388247857143,4.0492682420255
mp-32881,Si3O,"[Element O, Element Si]",2,Si12 O4,0.1885,-0.7824138031250001,2.1447780638837752
mp-486,NiP2,"[Element Ni, Element P]",2,Ni2 P4,0.3713,-0.401355698650792,4.5692609593876075
mp-542794,Fe7S8,"[Element Fe, Element S]",2,Fe14 S16,0.0,-0.649051440999998,5.515879720112132
mp-34688,TiO2,"[Element O, Element Ti]",2,Ti2 O4,1.9546000000000001,-3.493553009444445,3.774912931038938
mp-541155,VS4,"[Element S, Element V]",2,V4 S16,0.9239,-0.9510626574999991,2.667712496982679
mp-542001,CeF4,"[Element Ce, Element F]",2,Ce6 F24,2.1473,-4.057656529333332,4.737642139028645
mp-540675,SeCl4,"[Element Cl, Element Se]",2,Se8 Cl32,3.0664,-0.349825507562499,2.554551721791184
mp-541013,TiI4,"[Element I, Element Ti]",2,Ti2 I8,1.0859,-1.031189425666664,4.577633696087508
mp-542846,AsS,"[Element As, Element S]",2,As8 S8,2.0204,-0.156382461406249,3.255901573227397
mp-504787,NpF4,"[Element F, Element Np]",2,Np6 F24,0.0,-4.010959970083332,6.852463159653237
mp-554714,Np2O5,"[Element Np, Element O]",2,Np8 O20,0.0,-3.448520474642858,8.213821040355036
mp-547094,RuO4,"[Element O, Element Ru]",2,Ru2 O8,2.3853,-1.181791856499999,3.631951168929951
mp-557837,SiO2,"[Element O, Element Si]",2,Si4 O8,5.6449,-3.264493386666667,2.283038293275298
mp-560064,SiO2,"[Element O, Element Si]",2,Si32 O64,5.7215,-3.252827641979166,1.493559429391789
mp-562490,SiO2,"[Element O, Element Si]",2,Si4 O8,5.599699999999999,-3.252672313333333,1.862372589825406
mp-556560,MnF3,"[Element F, Element Mn]",2,Mn2 F6,0.49360000000000004,-2.764831058232758,3.2606856333644583
mp-568394,MoCl3,"[Element Cl, Element Mo]",2,Mo4 Cl12,0.599699999999999,-0.9991047621875011,3.263482422062926
mp-556754,Ti3O5,"[Element O, Element Ti]",2,Ti6 O10,0.0,-3.380614719375001,4.335937953421416
mp-567907,P3N5,"[Element N, Element P]",2,P6 N10,3.559999999999999,-0.48987264595982205,2.763378388306106
mp-558733,SiO2,"[Element O, Element Si]",2,Si6 O12,5.29,-3.009139941111111,4.07667960167212
mp-562065,PO2,"[Element O, Element P]",2,P8 O16,4.5183,-2.264104192380951,2.499574783534377
mp-567963,Lu5Ir2,"[Element Ir, Element Lu]",2,Lu10 Ir4,0.0,-0.7433404733333341,12.42430659424228
mp-557993,BiO2,"[Element Bi, Element O]",2,Bi4 O8,1.1596,-1.459764126666667,9.362232999004997
mp-554855,CrF4,"[Element Cr, Element F]",2,Cr8 F32,1.5712000000000002,-2.60675029,3.088170448140656
mp-568546,In5Br7,"[Element Br, Element In]",2,In40 Br56,2.1443,-1.041482054027777,4.317624316157118
mp-558380,Cr2F5,"[Element Cr, Element F]",2,Cr4 F10,1.5997,-2.944371399285714,3.74375993804773
mp-567415,Nd2B5,"[Element B, Element Nd]",2,Nd8 B20,0.0,-0.5791514071428571,5.941578193097612
mp-569032,PrAu6,"[Element Au, Element Pr]",2,Pr2 Au12,0.0,-0.41372518166666505,15.768294563247567
mp-582753,Tl2Te,"[Element Te, Element Tl]",2,Tl44 Te22,0.8007000000000001,-0.434993182323239,8.534834080777113
mp-570355,PbCl4,"[Element Cl, Element Pb]",2,Pb2 Cl8,2.0991,-0.6938693730000011,3.579219964400524
mp-569561,TeCl4,"[Element Cl, Element Te]",2,Te8 Cl32,3.1165,-0.639768098499999,2.8105362195510892
mp-571193,MnP4,"[Element Mn, Element P]",2,Mn8 P32,0.5243,-0.35499020280049204,4.133395758819001
mp-571424,TiCl3,"[Element Cl, Element Ti]",2,Ti4 Cl12,0.019299999999999002,-1.806875666041666,2.621351397428019
mp-574424,SeN,"[Element N, Element Se]",2,Se8 N8,1.9567,0.634771408203125,3.532758304913475
mp-569404,Ni4B3,"[Element B, Element Ni]",2,Ni8 B6,0.0,-0.27518210892857103,7.606562398984083
mp-582067,Hf3As,"[Element As, Element Hf]",2,Hf24 As8,0.0,-0.640020217500001,12.772272693695616
mp-574498,Cs3Bi2,"[Element Bi, Element Cs]",2,Cs6 Bi4,0.0,-0.491370165,5.09631863591984
mp-573812,Cs3As11,"[Element As, Element Cs]",2,Cs12 As44,1.4052,-0.28239570742611003,4.005710412372885
mp-570651,Al17Mo4,"[Element Al, Element Mo]",2,Al34 Mo8,0.0,-0.29805339773809303,4.284325750995862
mp-604,Nb2O5,"[Element Nb, Element O]",2,Nb4 O10,2.5231,-3.017570597142858,5.096685632140811
mp-570553,FeP4,"[Element Fe, Element P]",2,Fe4 P16,0.8049000000000001,-0.37004192121428403,4.142491451453412
mp-612520,UI4,"[Element I, Element U]",2,U2 I8,0.166999999999999,-1.099864648999998,3.719648819636618
mp-612,PS,"[Element P, Element S]",2,P8 S8,2.4974,-0.15083367289434502,2.065305843722483
mp-569059,HfI4,"[Element Hf, Element I]",2,Hf4 I16,2.3487,-1.216609491000001,5.243518504521639
mp-622640,V3O7,"[Element O, Element V]",2,V18 O42,1.1152,-2.338437482666667,3.415487924570939
mp-680345,Tl2Br3,"[Element Br, Element Tl]",2,Tl64 Br96,1.223799999999999,-1.051233502895836,6.0646812018361
mp-655360,UI4,"[Element I, Element U]",2,U2 I8,0.26529999999999904,-1.150008491,5.167599266933403
mp-641678,XeF6,"[Element F, Element Xe]",2,Xe16 F96,2.5433,-0.782017285089286,3.469294196799556
mp-680760,In4Br7,"[Element Br, Element In]",2,In16 Br28,2.3081,-1.104823382424239,4.256217705808122
mp-646122,C20Cl3,"[Element C, Element Cl]",2,C160 Cl24,1.46,0.24339706915760903,1.876373169573289
mp-651707,SiO2,"[Element O, Element Si]",2,Si28 O56,5.8759000000000015,-3.26097193952381,1.9331408034174782
mp-672286,Eu3Ga2,"[Element Eu, Element Ga]",2,Eu6 Ga4,0.0,-0.473044993000002,6.862033454865123
mp-684805,Mn14Sb13,"[Element Mn, Element Sb]",2,Mn28 Sb26,0.0,-0.279376072618131,7.362160705410656
mp-646895,SiO2,"[Element O, Element Si]",2,Si32 O64,5.6942,-3.252928617812499,1.679921127175041
mp-680422,CBr4,"[Element Br, Element C]",2,C16 Br64,2.9265,-0.21596871687499902,3.054042881547761
mp-684,BaS2,"[Element Ba, Element S]",2,Ba2 S4,1.598199999999999,-1.7528733849999991,3.693656366723054
mp-684690,Sc2Se3,"[Element Sc, Element Se]",2,Sc4 Se6,0.5374,-1.927741243437501,4.465805422386391
mp-672351,Sm6Br13,"[Element Br, Element Sm]",2,Sm12 Br26,0.0,-1.917118803947368,5.61982774094554
mp-684623,Zr10C9,"[Element C, Element Zr]",2,Zr20 C18,0.0,-0.9983573618421061,6.4553789002498725
mp-684887,Fe24N11,"[Element Fe, Element N]",2,Fe48 N22,0.0,-0.148068191857141,7.435217077488251
mp-7224,ThC2,"[Element C, Element Th]",2,Th2 C4,0.0,-0.393996306666664,9.060660418111523
mp-706490,Mo9O26,"[Element Mo, Element O]",2,Mo36 O104,0.49840000000000007,-1.9340294184285711,4.065379095813415
mp-753215,Mn2F5,"[Element F, Element Mn]",2,Mn4 F10,0.0,-2.778075849408868,3.173746099502589
mp-684904,K2O,"[Element K, Element O]",2,K4 O2,0.38220000000000004,-1.194241038166666,1.7150055365453891