material_id,formula_pretty,elements,nelements,composition,band_gap,formation_energy_per_atom,density
mp-1102024,YbMn2,"[Element Mn, Element Yb]",2,Yb4 Mn8,0.0,-0.15865063882183902,8.371293641814903
mp-1102099,HoFe2,"[Element Fe, Element Ho]",2,Ho4 Fe8,0.0,-0.07262323749999701,9.61103886653386
mp-1102233,TbTc2,"[Element Tb, Element Tc]",2,Tb4 Tc8,0.0,-0.17804867000000002,10.714065815229256
mp-1102333,ErOs2,"[Element Er, Element Os]",2,Er4 Os8,0.0,-0.34757727249999804,16.918711942694106
mp-1102143,ErRe2,"[Element Er, Element Re]",2,Er4 Re8,0.0,-0.32741575861111405,16.30689843009193
mp-1102508,DyOs2,"[Element Dy, Element Os]",2,Dy4 Os8,0.0,-0.391299045000001,16.820381141119025
mp-1103426,YbCu2,"[Element Cu, Element Yb]",2,Yb4 Cu8,0.0,-0.25206621833333204,10.484548613190512
mp-1102741,PuOs2,"[Element Os, Element Pu]",2,Pu4 Os8,0.0,0.034858101250004006,19.170626948000304
mp-1102431,TbFe2,"[Element Fe, Element Tb]",2,Tb4 Fe8,0.0,-0.035666286388888004,9.147016056432143
mp-1102427,PrMn2,"[Element Mn, Element Pr]",2,Pr4 Mn8,0.0,0.212462126379307,7.412400868806042
mp-1102438,SmRu2,"[Element Ru, Element Sm]",2,Sm4 Ru8,0.0,-0.236342795833337,10.761212024076636
mp-1103264,ZrV2,"[Element V, Element Zr]",2,Zr4 V8,0.0,0.032566660833329,6.456226553557358
mp-1103211,CaPt2,"[Element Ca, Element Pt]",2,Ca4 Pt8,0.0,-0.9687453191666671,12.664312945109275
mp-1102759,HoMn2,"[Element Ho, Element Mn]",2,Ho4 Mn8,0.0,0.067629223955935,9.713119088642866
mp-1102649,TbMn2,"[Element Mn, Element Tb]",2,Tb4 Mn8,0.0,0.083220244712642,8.724359811192302
mp-1102439,UOs2,"[Element Os, Element U]",2,U4 Os8,0.0,-0.091182474999996,19.18376806017207
mp-1102559,NbSe2,"[Element Nb, Element Se]",2,Nb4 Se8,0.0,-0.9593207677083341,5.9395905675983105
mp-1102890,TmTc2,"[Element Tc, Element Tm]",2,Tm4 Tc8,0.0,-0.274062846666666,11.321290369470418
mp-1102895,TaZn2,"[Element Ta, Element Zn]",2,Ta4 Zn8,0.0,-0.138102528277774,11.436020901752887
mp-1102436,YCu2,"[Element Cu, Element Y]",2,Y4 Cu8,0.0,-0.173063584166669,7.071404945659412
mp-1103618,NbNi2,"[Element Nb, Element Ni]",2,Nb4 Ni8,0.0,-0.19137861249999902,9.020452151741756
mp-1102921,Re2W,"[Element Re, Element W]",2,Re8 W4,0.0,0.19372539666665903,19.30203875652327
mp-1103127,YMn2,"[Element Mn, Element Y]",2,Y4 Mn8,0.0,0.10575482703703401,6.948071694580295
mp-1103467,YbFe2,"[Element Fe, Element Yb]",2,Yb4 Fe8,0.0,-0.051006634166668,9.898680982682423
mp-1103739,LuRe2,"[Element Lu, Element Re]",2,Lu4 Re8,0.0,-0.318921318055557,16.539470425798495
mp-1103990,EuC6,"[Element C, Element Eu]",2,Eu2 C12,0.0,-0.11255589428571301,4.815255117386608
mp-1102680,ErFe2,"[Element Er, Element Fe]",2,Er4 Fe8,0.0,-0.098401689999999,9.79356413829151
mp-1105911,TiPd3,"[Element Pd, Element Ti]",2,Ti4 Pd12,0.0,-0.654274433541662,10.300262686975142
mp-1104594,B5Mo2,"[Element B, Element Mo]",2,B10 Mo4,0.0,0.41290000226190404,6.004686131047063
mp-1103315,Be2Ru,"[Element Be, Element Ru]",2,Be8 Ru4,0.0,-0.332087546666664,6.9330389326923285
mp-1105856,NpPt3,"[Element Np, Element Pt]",2,Np4 Pt12,0.0,-0.942481665937492,19.140184930938858
mp-1103459,NpRe2,"[Element Np, Element Re]",2,Np4 Re8,0.0,0.284825967083331,18.756821621404512
mp-1103373,KSn2,"[Element K, Element Sn]",2,K4 Sn8,0.0,-0.151703845749998,4.8998836784971616
mp-1103797,PuRe2,"[Element Pu, Element Re]",2,Pu4 Re8,0.0,0.32273615000000605,19.00200885510092
mp-1102767,CeMg2,"[Element Ce, Element Mg]",2,Ce4 Mg8,0.0,0.047488391944445006,3.420945870101688
mp-1105617,TcB4,"[Element B, Element Tc]",2,Tc4 B16,0.0,0.384577388499998,5.967437961738596
mp-1106346,B4Mo,"[Element B, Element Mo]",2,B16 Mo4,0.0,0.263112341333334,5.76331266081386
mp-1114,VP,"[Element P, Element V]",2,V2 P2,0.0,-0.8615036089880941,5.110906094817304
mp-11220,Sc2Al,"[Element Al, Element Sc]",2,Sc4 Al2,0.0,-0.366392015,3.039317592393201
mp-11345,ZrP,"[Element P, Element Zr]",2,Zr4 P4,0.0,-1.373017993571428,5.421727378204983
mp-1124,MgZn2,"[Element Mg, Element Zn]",2,Mg4 Zn8,0.0,-0.130630304999998,5.3434104059593
mp-11270,MnBe2,"[Element Be, Element Mn]",2,Mn4 Be8,0.0,-0.250302259310346,4.709906088885829
mp-11453,HfPd3,"[Element Hf, Element Pd]",2,Hf4 Pd12,0.0,-0.8964716099999991,13.124674214746374
mp-11557,ScRe2,"[Element Re, Element Sc]",2,Sc4 Re8,0.0,-0.38931652583333204,13.38960337373169
mp-11449,HfMn2,"[Element Hf, Element Mn]",2,Hf4 Mn8,0.0,-0.130002007988503,11.253471046497738
mp-11456,HfPt3,"[Element Hf, Element Pt]",2,Hf4 Pt12,0.0,-1.184154229375003,19.741751258770126
mp-11251,Mg3Au,"[Element Au, Element Mg]",2,Mg6 Au2,0.0,-0.176622044999999,5.065608966800242
mp-1139,Co3Mo,"[Element Co, Element Mo]",2,Co6 Mo2,0.0,0.125986668749998,9.96299728602397
mp-1120748,TeMo,"[Element Mo, Element Te]",2,Te2 Mo2,0.0,0.193969998750002,8.560240273299856
mp-1116,Sr2Mg17,"[Element Mg, Element Sr]",2,Sr4 Mg34,0.0,-0.03953583236842,2.005641692127195
mp-1120767,NaCl,"[Element Cl, Element Na]",2,Na6 Cl6,4.3847000000000005,-1.979630531249998,2.049684089998776
mp-11281,Be2V,"[Element Be, Element V]",2,Be8 V4,0.0,-0.21818012416666502,3.953487927139779
mp-11275,Be2Re,"[Element Be, Element Re]",2,Be8 Re4,0.0,-0.37955290416666604,11.55971879543903
mp-11524,TlNi,"[Element Ni, Element Tl]",2,Tl2 Ni2,0.0,0.228041293333333,11.479373785735628
mp-1172894,CaGa2,"[Element Ca, Element Ga]",2,Ca2 Ga4,0.162199999999999,1.806552188333332,0.07632930286306701
mp-1172435,SiAs3,"[Element As, Element Si]",2,Si2 As6,0.0,0.31698760406249804,3.392134500867951
mp-1181447,EuH2,"[Element Eu, Element H]",2,Eu2 H4,0.0,-0.6513824208333331,6.729275694318759
mp-11209,AlAs,"[Element Al, Element As]",2,Al2 As2,0.0,-0.378745271249999,4.549895623815901
mp-11232,YAl3,"[Element Al, Element Y]",2,Y2 Al6,0.0,0.472421888749998,2.391904116949502
mp-11284,CaGa2,"[Element Ca, Element Ga]",2,Ca2 Ga4,0.0,-0.595009248333333,4.720195360363828
mp-11527,Tm2Ni17,"[Element Ni, Element Tm]",2,Tm4 Ni34,0.0,-0.20921616868421103,9.458454663981351
mp-1136,Na3As,"[Element As, Element Na]",2,Na6 As2,0.0926,-0.552478555625,2.43757934527381
mp-11499,YMg2,"[Element Mg, Element Y]",2,Y4 Mg8,0.0,-0.051695309166666,2.9274841080380742
mp-11820,BaNa2,"[Element Ba, Element Na]",2,Ba4 Na8,0.0,0.002008439913794,2.165712614608327
mp-11497,TbMg2,"[Element Mg, Element Tb]",2,Tb4 Mg8,0.0,-0.045565300555554,4.437890431798705
mp-11282,Be2W,"[Element Be, Element W]",2,Be8 W4,0.0,-0.303591991666665,10.727997088686543
mp-11482,MoIr3,"[Element Ir, Element Mo]",2,Mo2 Ir6,0.0,-0.37208203125000205,19.324106016376305
mp-1183205,Ag3Au,"[Element Ag, Element Au]",2,Ag6 Au2,0.0,-0.05014332124999701,12.398116253407213
mp-1183109,Ac3Pm,"[Element Ac, Element Pm]",2,Ac6 Pm2,0.0,0.036769143749999005,7.918351771582973
mp-1183103,Ac3Dy,"[Element Ac, Element Dy]",2,Ac6 Dy2,0.0,0.068457499374993,8.37612839422867
mp-1183111,Ac3Ho,"[Element Ac, Element Ho]",2,Ac6 Ho2,0.0,0.070545855624999,8.355102594529876
mp-1183051,AcLa3,"[Element Ac, Element La]",2,Ac2 La6,0.0,0.032624621875001,6.638508627349762
mp-1183046,ZrTi3,"[Element Ti, Element Zr]",2,Zr2 Ti6,0.0,0.0405062725,5.162631645962282
mp-1183113,Ac3Cl,"[Element Ac, Element Cl]",2,Ac6 Cl2,0.0,-0.22815831833334202,7.66006951102616
mp-1183100,Ac3Cd,"[Element Ac, Element Cd]",2,Ac6 Cd2,0.0,-0.081378241770828,8.465940021118719
mp-1183098,Ac3Tm,"[Element Ac, Element Tm]",2,Ac6 Tm2,0.0,0.073466870208335,8.487668620293496
mp-1183123,Ac3Lu,"[Element Ac, Element Lu]",2,Ac6 Lu2,0.0,0.07531392812500501,8.51176277571563
mp-1183116,Ac3Zn,"[Element Ac, Element Zn]",2,Ac6 Zn2,0.0,0.051860592239577,8.39870785355557
mp-1182102,BaH2,"[Element Ba, Element H]",2,Ba2 H4,1.6461000000000001,-0.5789698816666681,4.432350608108235
mp-1183112,Ac3Ag,"[Element Ac, Element Ag]",2,Ac6 Ag2,0.0,0.084600328124999,8.795745210236547
mp-1183119,Ac3Br,"[Element Ac, Element Br]",2,Ac6 Br2,0.0,-0.250735133125,7.898587871097114
mp-1183231,BRu3,"[Element B, Element Ru]",2,B2 Ru6,0.0,0.45734179020833504,10.46549358456595
mp-1183244,Ag3F,"[Element Ag, Element F]",2,Ag6 F2,0.0,-0.409791580416666,8.506404503323726
mp-1183099,Ac3Tb,"[Element Ac, Element Tb]",2,Ac6 Tb2,0.0,0.065176126875002,8.286315100881167
mp-1183107,Ac3I,"[Element Ac, Element I]",2,Ac6 I2,0.0,-0.20040900187500002,8.165467581750958
mp-1183102,Ac3Y,"[Element Ac, Element Y]",2,Ac6 Y2,0.0,0.047490509375002,7.470095319326484
mp-1183237,AcMg3,"[Element Ac, Element Mg]",2,Ac2 Mg6,0.0,-0.014329390625,4.172201049624254
mp-1183225,Ag3Rh,"[Element Ag, Element Rh]",2,Ag6 Rh2,0.0,0.22273823249999902,10.358031864717374
mp-1183223,AlAu3,"[Element Al, Element Au]",2,Al2 Au6,0.0,-0.199118088749997,15.307869129254911
mp-1183122,Ac3Si,"[Element Ac, Element Si]",2,Ac6 Si2,0.0,-0.274677942187501,8.528232203376154
mp-1183216,AlCu3,"[Element Al, Element Cu]",2,Al2 Cu6,0.0,-0.1994387025,7.516028024981326
mp-1183172,AcO,"[Element Ac, Element O]",2,Ac2 O2,0.0,-2.92545982375,8.627683228517736
mp-1183206,Ag3Pd,"[Element Ag, Element Pd]",2,Ag6 Pd2,0.0,-0.06175013499999601,10.708736006456256
mp-1183232,AlNi3,"[Element Al, Element Ni]",2,Al2 Ni6,0.0,-0.40519879874999903,7.6815551532728055
mp-1183126,Ac3Pa,"[Element Ac, Element Pa]",2,Ac6 Pa2,0.0,0.415650869374999,9.648125796784818
mp-1183114,AcCu3,"[Element Ac, Element Cu]",2,Ac2 Cu6,0.0,-0.059555694374999,8.572205360336502
mp-1183125,AcEu3,"[Element Ac, Element Eu]",2,Ac2 Eu6,0.0,0.025466385625001003,6.352772221804174
mp-1183180,Al3P,"[Element Al, Element P]",2,Al6 P2,0.0,0.06645275050595201,2.858714855777335
mp-1183188,AlTc3,"[Element Al, Element Tc]",2,Al2 Tc6,0.0,-0.152410869999997,9.18696124674635
mp-1183193,Ag3As,"[Element Ag, Element As]",2,Ag6 As2,0.0,0.0883969775,9.022950726712233
mp-1183238,AcCe3,"[Element Ac, Element Ce]",2,Ac2 Ce6,0.0,0.19331443812500002,8.205863285210507
mp-1183247,AcSc3,"[Element Ac, Element Sc]",2,Ac2 Sc6,0.0,0.123299420624999,5.124438034844145
mp-1183259,AcNd3,"[Element Ac, Element Nd]",2,Ac2 Nd6,0.0,0.037042963749996,7.140601318909621
mp-1183306,AlRh3,"[Element Al, Element Rh]",2,Al2 Rh6,0.0,-0.50482574375,10.16585494856076
mp-1183254,Ag3S,"[Element Ag, Element S]",2,Ag6 S2,0.0,0.061218283880212006,8.177007044993303
mp-1183364,BaAc3,"[Element Ac, Element Ba]",2,Ba2 Ac6,0.0,0.104439201875,7.013808351529065
mp-1183250,Ag3Hg,"[Element Ag, Element Hg]",2,Ag6 Hg2,0.0,0.021212263125001,11.854474513769265
mp-1183265,Ag3Cl,"[Element Ag, Element Cl]",2,Ag6 Cl2,0.0,-0.02073470645833,7.33751677069213
mp-1183280,Ac3Np,"[Element Ac, Element Np]",2,Ac6 Np2,0.0,0.46171710593749504,9.414685112108275
mp-1183272,Ag3Br,"[Element Ag, Element Br]",2,Ag6 Br2,0.0,-0.042939627499998,7.648671575046948
mp-1183271,Ac3Eu,"[Element Ac, Element Eu]",2,Ac6 Eu2,0.0,0.015198531874999002,7.426651227319795
mp-1183275,AsPb3,"[Element As, Element Pb]",2,As2 Pb6,0.0,0.062780506875,10.043780622519115
mp-1183248,AgSn3,"[Element Ag, Element Sn]",2,Ag2 Sn6,0.0,0.11149111750000101,7.522514060079257
mp-1183339,BaBr3,"[Element Ba, Element Br]",2,Ba2 Br6,0.0,-1.8360441825,4.822569629940468
mp-1183279,AlPb3,"[Element Al, Element Pb]",2,Al2 Pb6,0.0,0.196926847499995,9.230856215717134
mp-1183346,BaCa3,"[Element Ba, Element Ca]",2,Ba2 Ca6,0.0,0.037178258750000005,2.179696039644328
mp-1183349,Ba3Tm,"[Element Ba, Element Tm]",2,Ba6 Tm2,0.0,0.23786699499999803,4.758260019654752
mp-1183371,Ba3Pm,"[Element Ba, Element Pm]",2,Ba6 Pm2,0.0,0.19079931687499901,4.35252691334054
mp-1183264,AcPm3,"[Element Ac, Element Pm]",2,Ac2 Pm6,0.0,0.038333158749999,7.316926266082997
mp-1183296,BPb3,"[Element B, Element Pb]",2,B2 Pb6,0.0,0.985769182708331,9.75858065311388
mp-1183355,Ba3Y,"[Element Ba, Element Y]",2,Ba6 Y2,0.0,0.225374193749999,3.999042947696323
mp-1183363,Ba3Th,"[Element Ba, Element Th]",2,Ba6 Th2,0.0,0.422398343750001,5.307848807043034
mp-1183266,AcPr3,"[Element Ac, Element Pr]",2,Ac2 Pr6,0.0,0.045715578124998005,6.9060635543457884
mp-1183348,Au3Br,"[Element Au, Element Br]",2,Au6 Br2,0.0,0.170988886249999,12.53995184875719
mp-1183258,AcTh3,"[Element Ac, Element Th]",2,Ac2 Th6,0.0,0.132876755625005,10.988500269030464
mp-1183260,AcSm3,"[Element Ac, Element Sm]",2,Ac2 Sm6,0.0,0.039414258124999005,7.597857267990373
mp-1183263,BOs3,"[Element B, Element Os]",2,B2 Os6,0.0,0.759747159375002,18.564602957344913
mp-1183347,Ba3H,"[Element Ba, Element H]",2,Ba6 H2,0.0,0.440766602187499,3.426730663515582
mp-1183368,Ba3Pr,"[Element Ba, Element Pr]",2,Ba6 Pr2,0.0,0.17477673833333301,4.301497371127366
mp-1183357,Ba3Sm,"[Element Ba, Element Sm]",2,Ba6 Sm2,0.0,0.19724092874999902,4.437397916346113
mp-1183362,Ba3Bi,"[Element Ba, Element Bi]",2,Ba6 Bi2,0.0,-0.44753820250000004,5.780743761968124
mp-1183369,Ba3Sr,"[Element Ba, Element Sr]",2,Ba6 Sr2,0.0,0.016662682500001,3.2080367953864872
mp-1183249,Ag3Se,"[Element Ag, Element Se]",2,Ag6 Se2,0.0,-0.029397497057289,8.76189601499747
mp-1183351,Ba3Nd,"[Element Ba, Element Nd]",2,Ba6 Nd2,0.0,0.18107107062500002,4.334220263936064
mp-1183359,Ba3Er,"[Element Ba, Element Er]",2,Ba6 Er2,0.0,0.2337806125,4.657498832292063
mp-1183261,Ag3Ru,"[Element Ag, Element Ru]",2,Ag6 Ru2,0.0,0.5244341787499991,10.235891254320787
mp-1183320,AsPt3,"[Element As, Element Pt]",2,As2 Pt6,0.0,0.014223817187499,16.999871631563895
mp-1183654,Cd3Pt,"[Element Cd, Element Pt]",2,Cd6 Pt2,0.0,-0.15544002374999802,11.810414421997196
mp-1183388,BaEu3,"[Element Ba, Element Eu]",2,Ba2 Eu6,0.0,0.061331941249996004,5.021339622734641
mp-1183376,Ba3Ac,"[Element Ac, Element Ba]",2,Ba6 Ac2,0.0,0.106798829374999,4.637448616175158
mp-1183610,CaSm3,"[Element Ca, Element Sm]",2,Ca2 Sm6,0.0,0.101643298749998,5.772186664863961
mp-1183481,BiS3,"[Element Bi, Element S]",2,Bi2 S6,0.0,0.20513123660156202,5.9571886540749865
mp-1183434,Be3S,"[Element Be, Element S]",2,Be6 S2,0.0,0.298261593124999,1.976097059840504
mp-1183374,Ba3Ca,"[Element Ba, Element Ca]",2,Ba6 Ca2,0.0,0.029850338749998002,3.091433956158484
mp-1183380,Ba3La,"[Element Ba, Element La]",2,Ba6 La2,0.0,0.174780477499999,4.181506840866934
mp-1183526,BePb3,"[Element Be, Element Pb]",2,Be2 Pb6,0.0,0.5603575125000021,9.81342503631059
mp-1183425,Be3Co,"[Element Be, Element Co]",2,Be6 Co2,0.0,-0.25081164,4.360277237655192
mp-1183506,Bi3P,"[Element Bi, Element P]",2,Bi6 P2,0.0,0.41041729791666604,9.886254192975734
mp-1183517,CaCd3,"[Element Ca, Element Cd]",2,Ca2 Cd6,0.0,-0.23807857749999803,6.441814294964145
mp-1183383,BaLa3,"[Element Ba, Element La]",2,Ba2 La6,0.0,0.170599843749998,5.446844800129883
mp-1183518,Ca3W,"[Element Ca, Element W]",2,Ca6 W2,0.0,0.8897563537499981,4.28813883619456
mp-1183589,CaF3,"[Element Ca, Element F]",2,Ca2 F6,0.0,-3.018630341875,3.38140018257055
mp-1183648,Cd3Pd,"[Element Cd, Element Pd]",2,Cd6 Pd2,0.0,-0.19044026624999802,9.851154892348811
mp-1183659,CdAs3,"[Element As, Element Cd]",2,Cd2 As6,0.0,0.39519793562499905,6.8377387316126725
mp-1183522,Ca3Tb,"[Element Ca, Element Tb]",2,Ca6 Tb2,0.0,0.126464537499998,2.981853847660703
mp-1183599,CaOs3,"[Element Ca, Element Os]",2,Ca2 Os6,0.0,0.8536668462500001,15.217666288738274
mp-1183662,Cd3Ga,"[Element Cd, Element Ga]",2,Cd6 Ga2,0.0,0.09590597374999901,7.924552996579131
mp-1183505,Bi3As,"[Element As, Element Bi]",2,Bi6 As2,0.0,0.276770030000001,10.216549767456483
mp-1183385,Ba3Dy,"[Element Ba, Element Dy]",2,Ba6 Dy2,0.0,0.22893909458333403,4.630301020569985
mp-1183611,CaYb3,"[Element Ca, Element Yb]",2,Ca2 Yb6,0.0,0.108143874999996,7.155690018550779
mp-1183600,CaPr3,"[Element Ca, Element Pr]",2,Ca2 Pr6,0.0,0.081654635000003,5.142134197204066
mp-1183628,CdC,"[Element C, Element Cd]",2,Cd2 C2,0.0,1.990464811249999,6.155432118713345
mp-1183652,CdHg3,"[Element Cd, Element Hg]",2,Cd2 Hg6,0.0,0.039910485625000006,11.91671716788449
mp-1183663,Cd3Pb,"[Element Cd, Element Pb]",2,Cd6 Pb2,0.0,0.091022771250003,9.123415259478724
mp-1183523,Ca3Dy,"[Element Ca, Element Dy]",2,Ca6 Dy2,0.0,0.13146053500000002,3.054474221540068
mp-1183604,CaEu3,"[Element Ca, Element Eu]",2,Ca2 Eu6,0.0,0.024413907499997,4.6617065528801085
mp-1183605,CaPm3,"[Element Ca, Element Pm]",2,Ca2 Pm6,0.0,0.097397565624998,5.503917191394702
mp-1183433,BaYb3,"[Element Ba, Element Yb]",2,Ba2 Yb6,0.0,0.2704118475,7.644276043270854
mp-1183520,Ca3Lu,"[Element Ca, Element Lu]",2,Ca6 Lu2,0.0,0.14820201999999902,3.232801962639465
mp-1183525,BaCe3,"[Element Ba, Element Ce]",2,Ba2 Ce6,0.0,0.367618481250002,6.922604218575356
mp-1183563,Ba3Ce,"[Element Ba, Element Ce]",2,Ba6 Ce2,0.0,0.30313198375,4.043204608765339
mp-1183653,Cd3Os,"[Element Cd, Element Os]",2,Cd6 Os2,0.0,0.48383782750000004,11.632756899183695
mp-1183661,Cd3Hg,"[Element Cd, Element Hg]",2,Cd6 Hg2,0.0,0.033984154374998,10.076285673257656
mp-1183731,Ce3I,"[Element Ce, Element I]",2,Ce6 I2,0.0,-0.251821238749998,8.434637847599848
mp-1183774,Co3Sn,"[Element Co, Element Sn]",2,Co6 Sn2,0.0,0.1127828275,9.465181171788405