material_id,formula_pretty,elements,nelements,composition,band_gap,formation_energy_per_atom,density
mp-32887,HfTe2,"[Element Hf, Element Te]",2,Hf1 Te2,0.0,-0.9932034833333311,7.418710894962563
mp-567259,CdI2,"[Element Cd, Element I]",2,Cd1 I2,2.4195,-0.826542507333332,5.221618358738652
mp-30031,CaI2,"[Element Ca, Element I]",2,Ca1 I2,3.8971,-1.89441126,3.810445046731192
mp-547622,Pm2O3,"[Element O, Element Pm]",2,Pm2 O3,3.8673,-3.8237697285000003,7.496773097556724
mp-510753,NiO2,"[Element Ni, Element O]",2,Ni1 O2,1.4616999999999991,-0.6806917733333321,4.806962261939595
mp-510437,In3Pd2,"[Element In, Element Pd]",2,In3 Pd2,0.0,-0.544883318,9.231624362411505
mp-569018,Mg3Bi2,"[Element Bi, Element Mg]",2,Mg3 Bi2,0.0,-0.17866593899999803,5.811705196439081
mp-567483,CdI2,"[Element Cd, Element I]",2,Cd6 I12,2.030599999999999,-0.826998216222221,5.350018227460171
mp-569240,Fe3Se4,"[Element Fe, Element Se]",2,Fe3 Se4,0.0,-0.404479919910713,6.4886339343677335
mp-567442,CdI2,"[Element Cd, Element I]",2,Cd6 I12,2.3555,-0.8265692945555531,5.337509553172365
mp-567567,CdI2,"[Element Cd, Element I]",2,Cd9 I18,2.3813,-0.8258457077777771,5.216638529193898
mp-569916,Al3Pt2,"[Element Al, Element Pt]",2,Al6 Pt4,0.0,-0.746760598999998,9.515471537568265
mp-567359,CdI2,"[Element Cd, Element I]",2,Cd5 I10,2.2640000000000002,-0.826830709333329,5.246513056697085
mp-567534,CdI2,"[Element Cd, Element I]",2,Cd8 I16,2.348499999999999,-0.8269409698333341,5.253366253296247
mp-570081,CuI,"[Element Cu, Element I]",2,Cu2 I2,1.6471,-0.34341796833333205,5.728773114188356
mp-567336,CdI2,"[Element Cd, Element I]",2,Cd4 I8,2.2164,-0.8267225923333341,5.2525791936167
mp-571122,FeI2,"[Element Fe, Element I]",2,Fe1 I2,0.0,-0.35320006000000004,5.173043971512516
mp-569581,Bi2Pt,"[Element Bi, Element Pt]",2,Bi6 Pt3,0.0,-0.24849025958332902,12.484368237778762
mp-570122,Cr3Te4,"[Element Cr, Element Te]",2,Cr3 Te4,0.0,-0.381463390952381,6.226883200637462
mp-570259,MgCl2,"[Element Cl, Element Mg]",2,Mg1 Cl2,5.5713,-2.254810721666666,2.307430592779737
mp-570418,YbI2,"[Element I, Element Yb]",2,Yb1 I2,4.007,-1.285474459999998,6.425454803586741
mp-569610,CoI2,"[Element Co, Element I]",2,Co1 I2,0.0,-0.24168568666667,5.968076484460047
mp-567402,CdI2,"[Element Cd, Element I]",2,Cd6 I12,2.3572,-0.826970900666666,5.270555943290368
mp-567510,BaSn2,"[Element Ba, Element Sn]",2,Ba1 Sn2,0.0,-0.5843012333333311,5.730052895987158
mp-569708,TiPt3,"[Element Pt, Element Ti]",2,Ti7 Pt21,0.0,-0.9275554123809441,17.39106919534261
mp-571096,FeCl2,"[Element Cl, Element Fe]",2,Fe1 Cl2,0.0,-1.1476221366666661,3.165883660557531
mp-7088,Ta2C,"[Element C, Element Ta]",2,Ta2 C1,0.0,-0.679055604888887,14.959978675522288
mp-685055,CrTe2,"[Element Cr, Element Te]",2,Cr8 Te16,0.0,-0.47679501111111106,6.3659038081205335
mp-6997,Sb2Te,"[Element Sb, Element Te]",2,Sb6 Te3,0.0,-0.20410161111110803,6.249269748806694
mp-680214,Bi8Se7,"[Element Bi, Element Se]",2,Bi24 Se21,0.0,-0.32793277778471003,7.853121057231019
mp-617,PtO2,"[Element O, Element Pt]",2,Pt1 O2,1.6099,-0.8708263916666651,10.633759523269788
mp-753890,Ni2H,"[Element H, Element Ni]",2,Ni2 H1,0.0,0.038879803750000004,8.5717734188434
mp-694,VSe2,"[Element Se, Element V]",2,V1 Se2,0.0,-0.833392346041667,5.37242010589523
mp-685209,Sc39N34,"[Element N, Element Sc]",2,Sc39 N34,0.0,-1.953534321849315,4.065969645224611
mp-614006,B2O,"[Element B, Element O]",2,B4 O2,0.0,-0.711013721111111,2.1533364759270572
mp-782,Te2Pd,"[Element Pd, Element Te]",2,Te2 Pd1,0.0,-0.34445980000000503,7.998445041439257
mp-622107,CeCd2,"[Element Cd, Element Ce]",2,Ce1 Cd2,0.0,0.098890240000002,7.240910978953217
mp-7716,SbTe,"[Element Sb, Element Te]",2,Sb6 Te6,0.0,-0.313456998333332,6.196054857906767
mp-696114,CoCl2,"[Element Cl, Element Co]",2,Co1 Cl2,0.079099999999999,-0.9415788283333331,3.326232985902064
mp-7540,Cu3P,"[Element Cu, Element P]",2,Cu6 P2,0.0,0.000813644255952,7.392194051428752
mp-8134,UO3,"[Element O, Element U]",2,U1 O3,1.6383,-3.498280838749997,9.101782039814061
mp-821313,FeO2,"[Element Fe, Element O]",2,Fe1 O2,0.0,-1.148006646666666,3.898621413519177
mp-665,SnSe2,"[Element Se, Element Sn]",2,Sn1 Se2,0.7018,-0.42389676937500004,5.54060127577694
mp-762,PtS2,"[Element Pt, Element S]",2,Pt1 S2,1.5467,-0.440054991874996,7.051273539602691
mp-7655,BaSi2,"[Element Ba, Element Si]",2,Ba1 Si2,0.0,-0.27101116833333905,4.157038208812736
mp-8372,CaSi2,"[Element Ca, Element Si]",2,Ca1 Si2,0.0,-0.40738314000000003,2.487153228917979
mp-849057,FeS,"[Element Fe, Element S]",2,Fe2 S2,0.0,-0.48756782874999804,5.682395484413268
mp-755263,CrS2,"[Element Cr, Element S]",2,Cr1 S2,0.0,-0.8691883449999991,3.628129825948234
mp-7891,Mg3As2,"[Element As, Element Mg]",2,Mg3 As2,0.0,-0.7560376660000001,3.491221532594449
mp-8652,SF6,"[Element F, Element S]",2,S3 F18,5.9243000000000015,-1.853114720401785,2.772689198221976
mp-7390,SrGe2,"[Element Ge, Element Sr]",2,Sr1 Ge2,0.0,-0.5580997133333311,5.08109904298776
mp-7711,Ag2O,"[Element Ag, Element O]",2,Ag2 O1,0.0,-0.19634364944444302,8.614878187275739
mp-973,U2N3,"[Element N, Element U]",2,U2 N3,0.0,-1.719843521249998,12.571322906219397
mp-995193,Si3H,"[Element H, Element Si]",2,Si6 H2,0.8982000000000001,0.028904541562500004,1.903816130207348
mp-9561,VS2,"[Element S, Element V]",2,V1 S2,0.0,-1.186567376666668,3.478564625493502
mp-985831,HfSe2,"[Element Hf, Element Se]",2,Hf1 Se2,0.5342,-1.564946299374999,7.0942137973591795
mp-971787,VBr2,"[Element Br, Element V]",2,V1 Br2,1.1332,-1.208906696666668,4.310131989266903
mp-985829,HfS2,"[Element Hf, Element S]",2,Hf1 S2,1.2237,-1.806995168541668,5.79919885634548
mp-995122,NbS2,"[Element Nb, Element S]",2,Nb1 S2,0.0,-1.305522709999997,4.192022793486482
mp-1212889,DyF3,"[Element Dy, Element F]",2,Dy6 F18,7.8654,-4.47408118875,8.023237487226558
mp-1192065,SmH3,"[Element H, Element Sm]",2,Sm6 H18,0.0037,-0.6878702065625001,6.063142412056437
mp-1191245,LuH3,"[Element H, Element Lu]",2,Lu6 H18,0.015600000000000001,-0.712564469062499,8.643211898960123
mp-1191179,TmH3,"[Element H, Element Tm]",2,Tm6 H18,0.006099999999999,-0.723427301562502,8.05063413651543
mp-1191736,YF3,"[Element F, Element Y]",2,Y6 F18,7.4289,-4.4420722320833335,5.290401973923945
mp-1210818,LuF3,"[Element F, Element Lu]",2,Lu6 F18,7.6899000000000015,-4.449161288749998,9.128648003284791
mp-1191571,DyH3,"[Element Dy, Element H]",2,Dy6 H18,0.004799999999999,-0.723336900729165,7.264099428329837
mp-1190843,NpH3,"[Element H, Element Np]",2,Np6 H18,0.0,-0.549395113749999,10.349118334702956
mp-254,NdF3,"[Element F, Element Nd]",2,Nd6 F18,7.6164000000000005,-4.452365858958333,6.550113185162411
mp-1190750,ErH3,"[Element Er, Element H]",2,Er6 H18,0.0,-0.720730351979166,7.809928704646585
mp-1191653,Li3As,"[Element As, Element Li]",2,Li18 As6,0.369399999999999,-0.797777485208333,2.624058411710134
mp-1557,Mg3Au,"[Element Au, Element Mg]",2,Mg18 Au6,0.0,-0.392171660416666,5.777542369183663
mp-14012,Cu3P,"[Element Cu, Element P]",2,Cu18 P6,0.0,-0.032591929077380004,7.492538115855721
mp-2651,PrF3,"[Element F, Element Pr]",2,Pr6 F18,7.5968,-4.436969277916666,6.278134809847106
mp-23706,YH3,"[Element H, Element Y]",2,Y6 H18,0.004299999999999,-0.7152201090624991,4.014695983502023
mp-905,LaF3,"[Element F, Element La]",2,La6 F18,6.042899999999999,-4.508268510833333,5.984096220582201
mp-976578,NdH3,"[Element H, Element Nd]",2,Nd6 H18,0.0,-0.6655914338541651,5.491965677144569
mp-505686,GdH3,"[Element Gd, Element H]",2,Gd6 H18,0.0,-0.674504033645831,6.661800134758611
mp-632656,HoH3,"[Element H, Element Ho]",2,Ho6 H18,0.0,-0.722255808645833,7.53046688880027
mp-8066,Cu3As,"[Element As, Element Cu]",2,Cu18 As6,0.0,0.07952983499999701,7.97962125574641
mp-2750540,LiTe3,"[Element Li, Element Te]",2,Li12 Te36,0.509599999999999,-0.449920973958334,5.424430316925462
mp-28478,NaTe3,"[Element Na, Element Te]",2,Na12 Te36,0.5092,-0.47606470229166803,5.107865429037708
mp-7634,Cu3As,"[Element As, Element Cu]",2,Cu18 As6,0.0,0.068055787083331,8.160363617123117
mp-982384,TbH3,"[Element H, Element Tb]",2,Tb6 H18,0.0,-0.7222324707291671,6.950445835645161
mp-510560,CeF3,"[Element Ce, Element F]",2,Ce6 F18,0.0,-4.305516417083333,6.2369492817549474
mp-359,Cu3P,"[Element Cu, Element P]",2,Cu18 P6,0.0,0.009897511130953001,7.367040864827103
mp-10264,NiTe,"[Element Ni, Element Te]",2,Ni2 Te2,0.0,-0.19041621250000001,7.170043885917813
mp-1014995,CrN2,"[Element Cr, Element N]",2,Cr12 N24,0.0,-0.131100754583332,1.577121457862407
mp-1008776,SrC2,"[Element C, Element Sr]",2,Sr1 C2,1.7742,0.074180307962961,3.661178331376194
mp-1038887,CeMg,"[Element Ce, Element Mg]",2,Ce1 Mg1,0.0,0.012493072499999001,5.541316310487699
mp-1070116,Ga2Te3,"[Element Ga, Element Te]",2,Ga2 Te3,0.0,-0.067140059999999,6.322248457641681
mp-1018141,BaC2,"[Element Ba, Element C]",2,Ba1 C2,1.3754,0.17763013666666602,4.536489078011071
mp-1038972,MgCd,"[Element Cd, Element Mg]",2,Mg1 Cd1,0.0,-0.031133805833331002,5.232491438304057
mp-1068510,In2Te3,"[Element In, Element Te]",2,In2 Te3,0.0,-0.379319893555555,6.344848636998902
mp-1060787,RbP,"[Element P, Element Rb]",2,Rb1 P1,0.0,0.6286198439285721,2.226154992655972
mp-1013526,VS2,"[Element S, Element V]",2,V1 S2,0.0,-1.183124923333333,3.362890387239581
mp-1018275,GaP,"[Element Ga, Element P]",2,Ga2 P2,0.8334,-0.374715666488096,3.976361674245297
mp-1038779,MgAl,"[Element Al, Element Mg]",2,Mg1 Al1,0.0,0.06514492250000001,2.198716849891578
mp-1061635,MgNb2,"[Element Mg, Element Nb]",2,Mg1 Nb2,0.0,0.299504531666666,6.072500689586552
mp-1009653,CaC2,"[Element C, Element Ca]",2,Ca1 C2,1.7072,0.067184118333332,2.413854564868653
mp-1040468,Si3H,"[Element H, Element Si]",2,Si6 H2,0.9013999999999991,0.0293787353125,1.892098257867982
mp-1024,CaGe2,"[Element Ca, Element Ge]",2,Ca2 Ge4,0.0,-0.5536160816666681,4.269213096762805
mp-1073456,MgSi2,"[Element Mg, Element Si]",2,Mg2 Si4,0.0,0.13084173333333302,2.311554663384266
mp-1077925,Na5Sn2,"[Element Na, Element Sn]",2,Na5 Sn2,0.0,-0.24069721714285602,3.122017825984004
mp-1039529,CaMg2,"[Element Ca, Element Mg]",2,Ca2 Mg4,0.0,-0.11041794833333402,1.7274979243545192
mp-1039305,MgBi,"[Element Bi, Element Mg]",2,Mg1 Bi1,0.0,-0.07770940750000101,6.877108466466584
mp-1051,ErNi3,"[Element Er, Element Ni]",2,Er3 Ni9,0.0,-0.43645612916666704,10.347702857282641
mp-1058315,KP,"[Element K, Element P]",2,K1 P1,0.0,0.47145372788690504,1.5326313137156191
mp-1039275,CaZn,"[Element Ca, Element Zn]",2,Ca1 Zn1,0.0,-0.10842755499999901,3.165377913303534
mp-1039368,CaMg,"[Element Ca, Element Mg]",2,Ca1 Mg1,0.0,0.046242356249999006,1.63249077796034
mp-1073501,MgSi2,"[Element Mg, Element Si]",2,Mg1 Si2,0.0,0.08766831833333301,2.304359905825
mp-1061732,MgZr2,"[Element Mg, Element Zr]",2,Mg1 Zr2,0.0,0.040719961666668004,4.877094407682449
mp-1062939,CoO2,"[Element Co, Element O]",2,Co4 O8,0.0,-0.965931922500002,4.54496218964363
mp-1072880,Nd2Fe,"[Element Fe, Element Nd]",2,Nd4 Fe2,0.0,0.35770933666666704,7.173713402297474
mp-1094247,MgSn,"[Element Mg, Element Sn]",2,Mg3 Sn3,0.0,-0.094394714999999,4.968753495097079
mp-1094310,SrMg2,"[Element Mg, Element Sr]",2,Sr2 Mg4,0.0,-0.08564724500000001,2.403045629956884
mp-1094571,MgSb,"[Element Mg, Element Sb]",2,Mg1 Sb1,0.0,-0.26851053749999904,4.728979789376031
mp-1094181,HfMg,"[Element Hf, Element Mg]",2,Hf1 Mg1,0.0,0.14666887250000102,7.645010960001746
mp-1094479,MgZr,"[Element Mg, Element Zr]",2,Mg1 Zr1,0.0,0.07173924249999901,4.263040714207669
mp-1095619,SmNi3,"[Element Ni, Element Sm]",2,Sm3 Ni9,0.0,-0.351837314583331,9.389870906535352
mp-1094418,YMg2,"[Element Mg, Element Y]",2,Y2 Mg4,0.0,-0.05248976666666601,2.931929636030672
mp-1094578,LiMg,"[Element Li, Element Mg]",2,Li1 Mg1,0.0,-0.022810885833333003,1.233730194359322
mp-1095461,NdCo3,"[Element Co, Element Nd]",2,Nd3 Co9,0.0,-0.0018176409374980002,8.637867810023046
mp-1080281,CeSe2,"[Element Ce, Element Se]",2,Ce1 Se2,1.123999999999999,-1.853900891562497,3.36154676347737
mp-1095497,YIr3,"[Element Ir, Element Y]",2,Y3 Ir9,0.0,-0.5848217075000021,15.67618108599326
mp-1080863,CeSe2,"[Element Ce, Element Se]",2,Ce12 Se24,1.0034,-1.3954662446180541,1.551109167359101
mp-1094477,MgZn,"[Element Mg, Element Zn]",2,Mg1 Zn1,0.0,0.0055059425,3.8937700512121873
mp-1080274,CeSe2,"[Element Ce, Element Se]",2,Ce1 Se2,1.1492,-1.8533169682291661,1.985110116537915
mp-1080304,CeSe2,"[Element Ce, Element Se]",2,Ce6 Se12,0.8538999999999991,-1.370781450451388,2.075705871880758
mp-1095001,CaZn,"[Element Ca, Element Zn]",2,Ca1 Zn1,0.0,-0.052704064999999,3.066353862233497
mp-1078164,Ba3Sc4,"[Element Ba, Element Sc]",2,Ba3 Sc4,0.0,0.411200752857142,3.8861513176921623
mp-1087554,CeSe2,"[Element Ce, Element Se]",2,Ce12 Se24,0.487299999999999,-1.369967012395832,1.932657873850856
mp-1094318,SrMg,"[Element Mg, Element Sr]",2,Sr1 Mg1,0.0,0.138656340833332,2.330382245742704
mp-1095561,NdNi3,"[Element Nd, Element Ni]",2,Nd3 Ni9,0.0,-0.309904714374996,9.036477322268803
mp-1094617,MgGa,"[Element Ga, Element Mg]",2,Mg1 Ga1,0.0,-0.071397641249999,4.081472383767
mp-1094129,LiO2,"[Element Li, Element O]",2,Li1 O2,0.07400000000000001,-0.534496061111111,2.237804733376227
mp-1080111,B3Mo,"[Element B, Element Mo]",2,B6 Mo2,0.0,-0.33393595812500104,5.822417292326966
mp-1080313,CeSe2,"[Element Ce, Element Se]",2,Ce2 Se4,0.9877,-1.852393023229165,5.149538668731821
mp-1080337,CeSe2,"[Element Ce, Element Se]",2,Ce1 Se2,1.0305,-1.8583298748958321,4.923660166933443
mp-1079888,TiSe,"[Element Se, Element Ti]",2,Ti4 Se4,0.0,-1.1847260553385421,5.868794222337214
mp-1080258,Cs2Se,"[Element Cs, Element Se]",2,Cs4 Se2,1.5747,-1.196020148020835,3.7319967217797823
mp-1094363,YMg,"[Element Mg, Element Y]",2,Y1 Mg1,0.0,0.0713737425,3.258676540891135
mp-1095562,TbCo3,"[Element Co, Element Tb]",2,Tb3 Co9,0.0,-0.14058048916666602,9.59381359206782
mp-1101819,DyFe3,"[Element Dy, Element Fe]",2,Dy3 Fe9,0.0,-0.066423455416665,8.78857929557374
mp-1102848,LaIr3,"[Element Ir, Element La]",2,La3 Ir9,0.0,-0.545112026249995,15.969823325063894
mp-1101053,SmCo3,"[Element Co, Element Sm]",2,Sm3 Co9,0.0,-0.010558955416667001,8.996006147572587
mp-1102187,SmFe3,"[Element Fe, Element Sm]",2,Sm3 Fe9,0.0,0.0075011095833330006,8.328275985363298
mp-1104237,Nb7Ni6,"[Element Nb, Element Ni]",2,Nb7 Ni6,0.0,-0.20618270538461503,8.755432140591498
mp-1102392,YFe3,"[Element Fe, Element Y]",2,Y3 Fe9,0.0,-0.050310542499998,6.870259267313855
mp-1102684,TmNi3,"[Element Ni, Element Tm]",2,Tm3 Ni9,0.0,-0.44610512083332404,10.473632597956938
mp-1105040,Ta6Zn7,"[Element Ta, Element Zn]",2,Ta6 Zn7,0.0,-0.13839837838461802,12.874370707847925
mp-1105377,Co7W6,"[Element Co, Element W]",2,Co7 W6,0.0,2.269009167948717,8.139288540669897
mp-1102468,UCo3,"[Element Co, Element U]",2,U3 Co9,0.0,-0.060599435416672,12.780311830715103
mp-1103958,GdIr3,"[Element Gd, Element Ir]",2,Gd3 Ir9,0.0,0.6468307308333381,16.8586945898029
mp-1105544,Sm2Co17,"[Element Co, Element Sm]",2,Sm2 Co17,0.0,-0.04625543526315801,8.766246058496064
mp-1103465,TiBe3,"[Element Be, Element Ti]",2,Ti3 Be9,0.0,-0.204800896249999,3.032161011415756
mp-1100319,Ni15O16,"[Element Ni, Element O]",2,Ni15 O16,0.0,-1.152582349677418,6.359212670811757
mp-1102049,TaBe3,"[Element Be, Element Ta]",2,Ta3 Be9,0.0,-0.23624920808333202,8.29556586099135
mp-1102078,DyNi3,"[Element Dy, Element Ni]",2,Dy3 Ni9,0.0,-0.411973878749998,9.795918302805646
mp-1103826,Ta7Fe6,"[Element Fe, Element Ta]",2,Ta7 Fe6,0.0,-0.177742847025639,13.963050389678232
mp-1102065,HoAl3,"[Element Al, Element Ho]",2,Ho3 Al9,0.0,-0.46566347958333104,5.3764746803380135
mp-1102167,CaNi3,"[Element Ca, Element Ni]",2,Ca3 Ni9,0.0,-0.15872832749999902,6.276554157672643
mp-1102252,TmCo3,"[Element Co, Element Tm]",2,Tm3 Co9,0.0,-0.140126859166669,10.183666035206864
mp-1102445,PrNi3,"[Element Ni, Element Pr]",2,Pr3 Ni9,0.0,-0.28374092041666404,8.81723190808422
mp-1102054,TbNi3,"[Element Ni, Element Tb]",2,Tb3 Ni9,0.0,-0.402314844166666,9.665851685400218
mp-1103015,TmFe3,"[Element Fe, Element Tm]",2,Tm3 Fe9,0.0,-0.112559290833335,9.432065576273075
mp-1102437,ThCo3,"[Element Co, Element Th]",2,Th3 Co9,0.0,-0.09348066983332601,11.233448231000265
mp-1104033,Nb6Cr7,"[Element Cr, Element Nb]",2,Nb6 Cr7,0.0,0.036828061538461,7.903961147064081
mp-1104548,Ta7Co6,"[Element Co, Element Ta]",2,Ta7 Co6,0.0,-0.23498456394871803,14.519214850940708
mp-1103939,Mn6Si7,"[Element Mn, Element Si]",2,Mn6 Si7,0.0,0.19814327458097802,5.409635607656864
mp-1105044,Nb6Ni7,"[Element Nb, Element Ni]",2,Nb6 Ni7,0.0,-0.210786316923074,8.956482712406045
mp-1101882,NdIr3,"[Element Ir, Element Nd]",2,Nd3 Ir9,0.0,-0.6027412777083321,16.402690920472143
mp-1101900,LuCo3,"[Element Co, Element Lu]",2,Lu3 Co9,0.0,-0.156311356666666,10.375294132260771
mp-1104372,Nb6Zn7,"[Element Nb, Element Zn]",2,Nb6 Zn7,0.0,-0.137137538461539,8.165604971679388
mp-1101986,GdNi3,"[Element Gd, Element Ni]",2,Gd3 Ni9,0.0,-0.38342262999999904,9.597363238603098
mp-1103088,DyAl3,"[Element Al, Element Dy]",2,Dy3 Al9,0.0,-0.47229792874999704,5.2637752928630555
mp-1103188,Zr3Te,"[Element Te, Element Zr]",2,Zr9 Te3,0.0,0.099424511666668,6.592101784796319
mp-1103885,Nb6Fe7,"[Element Fe, Element Nb]",2,Nb6 Fe7,0.0,-0.11254921923076801,8.700544780580765
mp-1104334,Nb7Co6,"[Element Co, Element Nb]",2,Nb7 Co6,0.0,-0.16124281230769202,8.929249449844175
mp-1104956,Ta6Fe7,"[Element Fe, Element Ta]",2,Ta6 Fe7,0.0,-0.18939963338461502,13.700452318809546
mp-1105734,Ho2Co7,"[Element Co, Element Ho]",2,Ho4 Co14,0.0,-0.10556113666666501,9.799389245909055
mp-11273,Be3Nb,"[Element Be, Element Nb]",2,Be9 Nb3,0.0,-0.23579205124999802,4.699340875736425
mp-1183615,CaNp,"[Element Ca, Element Np]",2,Ca1 Np1,0.0,0.7380221556250031,7.377399028961502
mp-1105621,Pr2Co17,"[Element Co, Element Pr]",2,Pr2 Co17,0.0,-0.001834214385963,8.629549438979387
mp-1106140,Y2Co17,"[Element Co, Element Y]",2,Y2 Co17,0.0,-0.067291432105262,8.072423341093407
mp-1106107,Dy2Fe17,"[Element Dy, Element Fe]",2,Dy2 Fe17,0.0,-0.006376504385964,8.211312264127677
mp-1106237,DyAl3,"[Element Al, Element Dy]",2,Dy5 Al15,0.0,-0.46682122624999906,5.312041154402506
mp-1183961,CsNd,"[Element Cs, Element Nd]",2,Cs1 Nd1,0.0,0.639719892284482,4.5138496036683975
mp-1105643,Hf2Be17,"[Element Be, Element Hf]",2,Hf2 Be17,0.0,-0.22629741236842102,4.82177170198779
mp-1180973,MgO,"[Element Mg, Element O]",2,Mg8 O8,3.8943000000000003,-2.9785806399999992,3.449450480909065
mp-1106043,Sm2Co7,"[Element Co, Element Sm]",2,Sm4 Co14,0.0,-0.024810638888889004,9.0917544815089
mp-1109,Sr5Al9,"[Element Al, Element Sr]",2,Sr5 Al9,0.0,-0.283871463571427,3.208644651073483
mp-1182452,CrGa,"[Element Cr, Element Ga]",2,Cr13 Ga13,0.0,0.016624677307690003,7.182517591556712
mp-1105997,Ca2Ni7,"[Element Ca, Element Ni]",2,Ca4 Ni14,0.0,-0.148624289444443,6.331293564592923
mp-1105870,Nd2Co7,"[Element Co, Element Nd]",2,Nd4 Co14,0.0,0.014037693888885,8.926037528868859
mp-1183535,Br2Cl3,"[Element Br, Element Cl]",2,Br2 Cl3,0.0,-0.253516416000001,1.992619759724252
mp-1183964,CsPm,"[Element Cs, Element Pm]",2,Cs1 Pm1,0.0,0.6635684972844831,4.582552869432165
mp-1180271,MgO2,"[Element Mg, Element O]",2,Mg1 O2,2.3801,-1.9445164549999991,2.999543553257557
mp-1105569,Y2Fe17,"[Element Fe, Element Y]",2,Y2 Fe17,0.0,-0.002155740526315,7.195704559056917
mp-1180519,Mg3In,"[Element In, Element Mg]",2,Mg12 In4,0.0,0.22081940833333302,2.823601906391593
mp-1182324,Nb6Co7,"[Element Co, Element Nb]",2,Nb6 Co7,0.0,0.5403744376923071,7.3712321699171
mp-1106330,Pr2Co7,"[Element Co, Element Pr]",2,Pr4 Co14,0.0,0.039701647714843004,8.479261505285379
mp-1106070,Dy2Co17,"[Element Co, Element Dy]",2,Dy2 Co17,0.0,-0.074714449122806,9.119631311780802
mp-1106216,Ho2Co17,"[Element Co, Element Ho]",2,Ho2 Co17,0.0,-0.078139628947368,9.224602847413498
mp-1120770,Tl2Cl3,"[Element Cl, Element Tl]",2,Tl2 Cl3,0.0,-1.129102705333336,5.206600753172683
mp-11693,TePt,"[Element Pt, Element Te]",2,Te2 Pt2,0.0,-0.40101709500000005,11.31968256685772
mp-1173456,NiBr2,"[Element Br, Element Ni]",2,Ni1 Br2,0.763899999999999,-0.26879788999999904,0.19884195288552903