material_id,formula_pretty,elements,nelements,composition,band_gap,formation_energy_per_atom,density
mp-25234,CoO2,"[Element Co, Element O]",2,Co2 O4,0.0,-0.9836911083333351,4.95947693974611
mp-25378,CuO2,"[Element Cu, Element O]",2,Cu1 O2,0.0,-0.529777563333333,4.631569031329225
mp-2699,CaSi2,"[Element Ca, Element Si]",2,Ca2 Si4,0.0,-0.42687056833333403,2.436716332414156
mp-2700,CaSi2,"[Element Ca, Element Si]",2,Ca1 Si2,0.0,-0.42380402666666706,2.373197652802807
mp-27410,Sn4P3,"[Element P, Element Sn]",2,Sn4 P3,0.0,0.008157812295918,5.767916219090152
mp-27638,NiI2,"[Element I, Element Ni]",2,Ni1 I2,0.0,-0.380275129999998,5.466165218635032
mp-27505,Fe3Sn2,"[Element Fe, Element Sn]",2,Fe6 Sn4,0.0,-0.001731922999998,8.206722072127109
mp-27771,Nb3Br8,"[Element Br, Element Nb]",2,Nb6 Br16,0.030699999999999002,-1.3176006222727281,5.026119516160572
mp-27587,Li8Pb3,"[Element Li, Element Pb]",2,Li8 Pb3,0.0,-0.327892539696969,5.453086459592683
mp-27919,Ti8C5,"[Element C, Element Ti]",2,Ti8 C5,0.0,-0.8287010371794871,4.572072274565825
mp-27637,NiBr2,"[Element Br, Element Ni]",2,Ni1 Br2,0.0,-0.7516804466666671,4.7704438242767395
mp-27923,TbCl,"[Element Cl, Element Tb]",2,Tb2 Cl2,0.0,-1.674011193749994,5.449802189193032
mp-27607,Bi4Se3,"[Element Bi, Element Se]",2,Bi4 Se3,0.0,-0.303336318169645,8.068500829083089
mp-2764,LaNi3,"[Element La, Element Ni]",2,La3 Ni9,0.0,-0.32366634458333204,8.730913011448022
mp-27679,LaBr,"[Element Br, Element La]",2,La2 Br2,0.0,-1.534323197500001,4.621208477060388
mp-27929,LaCl,"[Element Cl, Element La]",2,La2 Cl2,0.0,-1.68667232425,3.699418033980279
mp-27772,Nb3I8,"[Element I, Element Nb]",2,Nb6 I16,0.06770000000000001,-0.797843850000002,5.808609908335435
mp-27814,CS14,"[Element C, Element S]",2,C1 S14,2.5569,0.056117046041668006,1.8667736899083651
mp-27924,TbBr,"[Element Br, Element Tb]",2,Tb2 Br2,0.0,-1.490635905833334,6.206996145278
mp-27507,ScCl,"[Element Cl, Element Sc]",2,Sc2 Cl2,0.0,-1.587241105250003,2.547098788059759
mp-28105,Ni17S18,"[Element Ni, Element S]",2,Ni17 S18,0.0,-0.5447124821428561,5.516740775250005
mp-28233,MnCl2,"[Element Cl, Element Mn]",2,Mn1 Cl2,1.792599999999999,-1.5831389131609201,2.918073685479806
mp-28395,B6P,"[Element B, Element P]",2,B12 P2,2.4757,-0.326223649710885,2.6073925513727563
mp-27705,Li2Si,"[Element Li, Element Si]",2,Li4 Si2,0.0,-0.18942723388888902,1.3920715936935841
mp-28229,Bi4Te3,"[Element Bi, Element Te]",2,Bi4 Te3,0.0,-0.194445580000003,8.05891095593435
mp-30710,Pr2Zn17,"[Element Pr, Element Zn]",2,Pr2 Zn17,0.0,-0.266934809649136,7.6012193347579995
mp-2901880,TiF3,"[Element F, Element Ti]",2,Ti1 F3,0.0,-3.353371614166667,3.205117427359857
mp-30964,Dy2Zn17,"[Element Dy, Element Zn]",2,Dy2 Zn17,0.0,-0.274633795526314,8.141322706912014
mp-30766,Li5Sn2,"[Element Li, Element Sn]",2,Li5 Sn2,0.0,-0.39956100380952203,3.5957095604714473
mp-30715,Lu2Zn17,"[Element Lu, Element Zn]",2,Lu2 Zn17,0.0,-0.235398627807016,8.408061118048627
mp-30963,Er2Zn17,"[Element Er, Element Zn]",2,Er2 Zn17,0.0,-0.259269366403507,8.254461449340242
mp-30634,HoFe3,"[Element Fe, Element Ho]",2,Ho3 Fe9,0.0,-0.08045810458333301,8.91538949231219
mp-31100,CeIr3,"[Element Ce, Element Ir]",2,Ce3 Ir9,0.0,-0.6292123575,16.6629427256712
mp-2876153,DyMn2,"[Element Dy, Element Mn]",2,Dy2 Mn4,0.0,0.008618160622605,8.96851076034662
mp-32584,Ti19N25,"[Element N, Element Ti]",2,Ti19 N25,0.0,-1.309148623020831,4.292536811308379
mp-29617,V3Sb2,"[Element Sb, Element V]",2,V6 Sb4,0.0,-0.201267670000001,7.401698053969762
mp-30713,Ho2Zn17,"[Element Ho, Element Zn]",2,Ho2 Zn17,0.0,-0.23626001684210302,8.196251345330845
mp-30638,ThFe3,"[Element Fe, Element Th]",2,Th3 Fe9,0.0,-0.057837391666665,10.437501340493116
mp-30714,Tm2Zn17,"[Element Tm, Element Zn]",2,Tm2 Zn17,0.0,-0.252925520263159,8.295876047088955
mp-30558,HoCo3,"[Element Co, Element Ho]",2,Ho3 Co9,0.0,-0.16880651874999802,9.864731009574545
mp-30709,La2Zn17,"[Element La, Element Zn]",2,La2 Zn17,0.0,-0.29150722500000004,7.449980561000421
mp-30711,Nd2Zn17,"[Element Nd, Element Zn]",2,Nd2 Zn17,0.0,-0.26760330657896103,7.693366381149838
mp-30441,Be17Nb2,"[Element Be, Element Nb]",2,Be17 Nb2,0.0,-0.197799639210526,3.331407268599828
mp-30574,CsGa7,"[Element Cs, Element Ga]",2,Cs2 Ga14,0.0,-0.154486704374999,5.593211352453595
mp-30712,Sm2Zn17,"[Element Sm, Element Zn]",2,Sm2 Zn17,0.0,-0.262779661052629,7.8554143816087
mp-528,U2Zn17,"[Element U, Element Zn]",2,U2 Zn17,0.0,-0.019792172631575,8.881615994745857
mp-34202,Bi2Te3,"[Element Bi, Element Te]",2,Bi2 Te3,0.3388,-0.274401004000003,7.315389164356592
mp-541837,Bi2Se3,"[Element Bi, Element Se]",2,Bi2 Se3,0.3769,-0.43407693543750203,7.164344933185313
mp-369,TbAl3,"[Element Al, Element Tb]",2,Tb3 Al9,0.0,-0.47728138749999904,5.129861982817475
mp-540743,Th2Zn17,"[Element Th, Element Zn]",2,Th2 Zn17,0.0,-0.25183450973684,8.625955329888614
mp-541180,Te3Pt2,"[Element Pt, Element Te]",2,Te6 Pt4,0.0,-0.43693187000000006,10.340374075683945
mp-35925,NiO2,"[Element Ni, Element O]",2,Ni1 O2,1.8142,-0.6875587833333331,3.170678840646732
mp-504594,ZrBr,"[Element Br, Element Zr]",2,Zr2 Br2,0.0,-1.2709659325,5.461591964490876
mp-540884,YCl,"[Element Cl, Element Y]",2,Y2 Cl2,0.0,-1.7067246037500001,3.6192902255659503
mp-510322,UCo5,"[Element Co, Element U]",2,U3 Co15,0.0,0.041951313055556,11.305694984559823
mp-411,ErCo3,"[Element Co, Element Er]",2,Er3 Co9,0.0,-0.187152956666664,10.018020513642899
mp-540789,PbI2,"[Element I, Element Pb]",2,Pb2 I4,2.3735,-0.9210956183333321,5.607903474009017
mp-356,Nd2Co17,"[Element Co, Element Nd]",2,Nd2 Co17,0.0,-0.01960561605263,8.743872002424741
mp-467,Th3N4,"[Element N, Element Th]",2,Th3 N4,1.4415,-1.8844950049999951,10.490056740910427
mp-541885,In3Te4,"[Element In, Element Te]",2,In3 Te4,0.0,-0.38397010112781704,6.283158492725109
mp-542177,PuAl3,"[Element Al, Element Pu]",2,Pu3 Al9,0.0,-0.39496713468750005,7.001601286691323
mp-534,B13N2,"[Element B, Element N]",2,B13 N2,0.0,-0.24130063888888803,2.590681538850435
mp-33255,Ni15O16,"[Element Ni, Element O]",2,Ni15 O16,0.0,-1.079404247419354,6.166903981199319
mp-555037,TaS2,"[Element S, Element Ta]",2,Ta1 S2,0.0,-1.36330538911111,6.46302035328481
mp-567747,Co7Mo6,"[Element Co, Element Mo]",2,Co7 Mo6,0.0,0.011532919358971001,9.86842800168291
mp-567306,Li3Ga7,"[Element Ga, Element Li]",2,Li6 Ga14,0.0,-0.254432013,4.839114735936638
mp-567456,CaGe2,"[Element Ca, Element Ge]",2,Ca1 Ge2,0.0,-0.555440400000001,4.285608554209398
mp-555170,B12S,"[Element B, Element S]",2,B12 S1,0.0,0.31725824173077005,2.371397750903323
mp-568012,Tb2Zn17,"[Element Tb, Element Zn]",2,Tb2 Zn17,0.0,-0.28101262657894704,8.070720139905374
mp-567724,TaSe2,"[Element Se, Element Ta]",2,Ta1 Se2,0.0,-0.900310501819447,7.941331615028332
mp-568289,CdI2,"[Element Cd, Element I]",2,Cd3 I6,2.3663,-0.8250330977777771,5.095240339219527
mp-542333,Cu9S5,"[Element Cu, Element S]",2,Cu9 S5,0.0,-0.155011724308035,5.821285606199512
mp-550206,CoO2,"[Element Co, Element O]",2,Co1 O2,0.0,-1.065683248333333,2.702539034679908
mp-542458,Ce2Zn17,"[Element Ce, Element Zn]",2,Ce2 Zn17,0.0,-0.241285253157894,7.630732352456541
mp-559605,SiO2,"[Element O, Element Si]",2,Si6 O12,4.0451,-3.033869635555556,1.9490744741040111
mp-542615,Bi3Se4,"[Element Bi, Element Se]",2,Bi3 Se4,0.0,-0.339298623035712,7.414416863875741
mp-559400,BeF2,"[Element Be, Element F]",2,Be12 F24,8.1837,-3.548647526666666,1.324242949790111
mp-568342,TbCl,"[Element Cl, Element Tb]",2,Tb2 Cl2,0.0,-1.673108136249993,5.505834354316715
mp-542327,Ce5Co19,"[Element Ce, Element Co]",2,Ce5 Co19,0.0,-0.1274427525,8.925688166566333
mp-558110,TiS2,"[Element S, Element Ti]",2,Ti1 S2,0.0,-1.605592862777777,2.149604426677374
mp-561488,SiO2,"[Element O, Element Si]",2,Si12 O24,2.7733,-2.760070474999999,1.7460754934653342
mp-542437,Gd2Zn17,"[Element Gd, Element Zn]",2,Gd2 Zn17,0.0,-0.267962281842105,7.988010086466163
mp-557762,TiS,"[Element S, Element Ti]",2,Ti3 S3,0.0,-1.579941213749998,4.35318353137896
mp-568390,Bi2Te3,"[Element Bi, Element Te]",2,Bi2 Te3,0.0,-0.024798753999994,7.806536191875013
mp-568233,CdI2,"[Element Cd, Element I]",2,Cd2 I4,2.3662,-0.8263907506666691,5.212635438703801
mp-558544,MoS2,"[Element Mo, Element S]",2,Mo1 S2,0.0,-0.6864253585416641,4.768964188289766
mp-571095,Na7Ga13,"[Element Ga, Element Na]",2,Na42 Ga78,0.0,-0.16921983485775802,4.123350219701506
mp-569509,Er2Co7,"[Element Co, Element Er]",2,Er4 Co14,0.0,-0.16233121111111,9.772589011164962
mp-569196,YNi3,"[Element Ni, Element Y]",2,Y3 Ni9,0.0,-0.38444531666666504,7.788807287711017
mp-568945,DyCo3,"[Element Co, Element Dy]",2,Dy3 Co9,0.0,-0.154753695416663,9.712146917309402
mp-568692,In4Br7,"[Element Br, Element In]",2,In8 Br14,2.2604,-1.098389039696969,4.248261346226169
mp-569843,MnBr2,"[Element Br, Element Mn]",2,Mn1 Br2,1.529399999999999,-1.168903279310344,4.153915264376702
mp-570400,Ba7Al10,"[Element Al, Element Ba]",2,Ba7 Al10,0.0,-0.23075273117647002,3.881553567557542
mp-570964,ZnI2,"[Element I, Element Zn]",2,Zn1 I2,1.8004,-0.730837913333333,5.088506896042292
mp-569100,LaRh3,"[Element La, Element Rh]",2,La3 Rh9,0.0,-0.522051219583332,10.260930204488124
mp-568690,CdBr2,"[Element Br, Element Cd]",2,Cd1 Br2,2.8798,-1.226343545,4.970785195570875
mp-569783,ErFe3,"[Element Er, Element Fe]",2,Er3 Fe9,0.0,-0.09930148166666701,9.057061919949204
mp-569594,Fe7Mo6,"[Element Fe, Element Mo]",2,Fe7 Mo6,0.0,0.0029073823076920004,9.614101541898435
mp-570369,Ce16Ru9,"[Element Ce, Element Ru]",2,Ce32 Ru18,0.0,-0.32609869899999605,8.816512621627043
mp-568722,CdBr2,"[Element Br, Element Cd]",2,Cd2 Br4,2.8551,-1.226469973333333,4.887249834906797
mp-569960,ZnBr2,"[Element Br, Element Zn]",2,Zn1 Br2,3.267299999999999,-1.182395913333333,4.04933015983593
mp-570872,CeCo3,"[Element Ce, Element Co]",2,Ce3 Co9,0.0,-0.147834257499998,9.077427284201423
mp-569595,PbI2,"[Element I, Element Pb]",2,Pb2 I4,2.408,-0.9208332933333331,5.5671832908658185
mp-640862,Sb16Te3,"[Element Sb, Element Te]",2,Sb16 Te3,0.0,-0.11349907473684101,6.302117220615151
mp-640058,PbI2,"[Element I, Element Pb]",2,Pb3 I6,2.4009,-0.9168236877777761,5.429193942337351
mp-574339,Y2Ni7,"[Element Ni, Element Y]",2,Y4 Ni14,0.0,-0.37176889166666505,7.692491082295529
mp-571149,Tb2Fe17,"[Element Fe, Element Tb]",2,Tb2 Fe17,0.0,-0.0027602596491240004,8.078163272848313
mp-581734,Gd2Fe17,"[Element Fe, Element Gd]",2,Gd2 Fe17,0.0,-0.005381587894734001,8.01390912348974
mp-622633,Nb6Co7,"[Element Co, Element Nb]",2,Nb6 Co7,0.0,0.6428843476923071,7.253493997992177
mp-636403,PuNi3,"[Element Ni, Element Pu]",2,Pu3 Ni9,0.0,-0.125320706354163,11.80801592599174
mp-684956,Tl2O3,"[Element O, Element Tl]",2,Tl4 O6,0.1854,-0.966828652333336,7.828531458493548
mp-573588,CdI2,"[Element Cd, Element I]",2,Cd4 I8,2.4027,-0.7884547924999991,5.00131533219417
mp-580062,Bi8Te9,"[Element Bi, Element Te]",2,Bi8 Te9,0.0815,-0.23482502999999702,7.711144993587404
mp-672671,PbI2,"[Element I, Element Pb]",2,Pb3 I6,2.3308,-0.913420567777776,5.5112495251614355
mp-654,Ce2Fe17,"[Element Ce, Element Fe]",2,Ce2 Fe17,0.0,0.015782001052632,7.893732217405182
mp-624,B6As,"[Element As, Element B]",2,B12 As2,2.6454,-0.20918894107142802,3.589969113026614
mp-644311,CuPt,"[Element Cu, Element Pt]",2,Cu1 Pt1,0.0,-0.18247179999999802,15.738806121418666
mp-669332,Mn3Bi,"[Element Bi, Element Mn]",2,Mn12 Bi4,0.0,0.6299638315517231,7.968829792801517
mp-672314,Mg3In,"[Element In, Element Mg]",2,Mg12 In4,0.0,0.16688004583333302,3.025316944114247
mp-692,Tb2C,"[Element C, Element Tb]",2,Tb2 C1,0.0,-0.417311696666667,7.836721016565398
mp-573608,CdI2,"[Element Cd, Element I]",2,Cd4 I8,2.4107,-0.788154228333332,5.047257152453207
mp-673817,Rb3P11,"[Element P, Element Rb]",2,Rb6 P22,0.0,0.25738619474489804,2.844455316890107
mp-574189,PbI2,"[Element I, Element Pb]",2,Pb4 I8,2.141899999999999,-0.9175829574999981,5.448511653814241
mp-571334,PrCo3,"[Element Co, Element Pr]",2,Pr3 Co9,0.0,0.026595047922117,8.417616996756074
mp-685079,Nb32N27,"[Element N, Element Nb]",2,Nb32 N27,0.0,-0.9745495818573491,7.986860292001171
mp-576,B13C2,"[Element B, Element C]",2,B13 C2,0.0,-0.094896928833333,2.454374562267944
mp-669713,Gd2Ni7,"[Element Gd, Element Ni]",2,Gd4 Ni14,0.0,-0.36985672555555504,9.462040032893807
mp-636105,MnGa,"[Element Ga, Element Mn]",2,Mn13 Ga13,0.0,-0.22203631762599402,7.415518852801219
mp-571655,B4C,"[Element B, Element C]",2,B12 C3,0.0,0.771254706,1.9877832711431882
mp-696746,B4C,"[Element B, Element C]",2,B12 C3,1.5149,-0.049383757333333,2.4876914308024203
mp-7285,HfNi3,"[Element Hf, Element Ni]",2,Hf3 Ni9,0.0,-0.5154395633333351,11.770259716390623
mp-759946,Sc16O15,"[Element O, Element Sc]",2,Sc16 O15,0.0,-3.146574829516129,4.411340190460114
mp-715558,Fe3O4,"[Element Fe, Element O]",2,Fe12 O16,0.0367,-1.56669374642857,4.9126128500397535
mp-7096,Fe3S4,"[Element Fe, Element S]",2,Fe3 S4,0.0,-0.5818713328571411,4.565297262223808
mp-754353,Zr3N4,"[Element N, Element Zr]",2,Zr3 N4,0.984399999999999,-1.800390252857143,6.338372164600035
mp-754434,Hf3N4,"[Element Hf, Element N]",2,Hf3 N4,1.0917,-1.900440968571428,11.600863500577582
mp-755523,TaS2,"[Element S, Element Ta]",2,Ta2 S4,0.0,-1.3643808274444411,6.503539204751993
mp-697180,Mg3In,"[Element In, Element Mg]",2,Mg12 In4,0.0,-0.07422344041666401,3.521320581760992
mp-723203,NF,"[Element F, Element N]",2,N2 F2,0.0,0.384673707499999,1.621694511572086
mp-754720,CoO2,"[Element Co, Element O]",2,Co2 O4,0.0,-0.9321049816666671,4.20618531814844
mp-730208,Rb2Pd,"[Element Pd, Element Rb]",2,Rb2 Pd1,0.7783,0.10148810500000001,3.276505846501684
mp-752536,Mn5O8,"[Element Mn, Element O]",2,Mn5 O8,0.0,-1.886158176896552,4.187507914602975
mp-755413,Na2O,"[Element Na, Element O]",2,Na4 O2,1.0889,-1.346765707586206,2.079114376969278
mp-753746,Rb2O,"[Element O, Element Rb]",2,Rb2 O1,0.4534,-1.133168373333332,3.226482428404933
mp-7250,Nb6Co7,"[Element Co, Element Nb]",2,Nb6 Co7,0.0,-0.150089824615384,8.885808577097624
mp-7542,GeP3,"[Element Ge, Element P]",2,Ge2 P6,0.0,0.042442982767857004,3.7531042581006933
mp-7541,SnP3,"[Element P, Element Sn]",2,Sn2 P6,0.0,-0.006844442232141001,4.128035418861642
mp-714885,VO,"[Element O, Element V]",2,V2 O2,0.783199999999999,-2.0896383025,5.2461728092815765
mp-7229,B5Mo2,"[Element B, Element Mo]",2,B5 Mo2,0.0,0.05092408154762,6.910597742884047
mp-755671,MnO2,"[Element Mn, Element O]",2,Mn2 O4,0.0,-1.762681066810345,4.437863434268103
mp-8628,Te4Pt3,"[Element Pt, Element Te]",2,Te4 Pt3,0.0,-0.43302517714285405,10.637056245062103
mp-8079,B5W2,"[Element B, Element W]",2,B5 W2,0.0,0.259371013690477,11.765117443529052
mp-973850,HoGa3,"[Element Ga, Element Ho]",2,Ho5 Ga15,0.0,-0.543934578375001,8.318047830676386
mp-862656,ErAl3,"[Element Al, Element Er]",2,Er5 Al15,0.0,-0.45782841633333005,5.524022152034123
mp-774295,Fe23O32,"[Element Fe, Element O]",2,Fe23 O32,0.009599999999999,-1.479474080727273,5.17346830781311
mp-9568,Li3Ga2,"[Element Ga, Element Li]",2,Li3 Ga2,0.0,-0.36898290800000005,3.620876767152491
mp-865205,Dy2Ni7,"[Element Dy, Element Ni]",2,Dy4 Ni14,0.0,-0.395253259814812,10.111048374784714
mp-978496,SiB4,"[Element B, Element Si]",2,Si3 B12,0.0,0.24630186775000001,2.552914236227995
mp-7851,TaCo3,"[Element Co, Element Ta]",2,Ta3 Co9,0.0,-0.21759491016666502,12.723918031622697
mp-865373,YCo,"[Element Co, Element Y]",2,Y2 Co2,0.0,-0.16334084750000002,5.363247054414503
mp-880,Pr2Fe17,"[Element Fe, Element Pr]",2,Pr2 Fe17,0.0,0.056461181403509,7.6511876164135515
mp-9897,Te3As2,"[Element As, Element Te]",2,Te24 As16,0.39010000000000006,0.007894957999999001,6.037327297474605
mp-8101,WN2,"[Element N, Element W]",2,W1 N2,0.0,0.196788273958333,11.745001091727204
mp-8035,B4C,"[Element B, Element C]",2,B12 C3,0.0,0.922049472666666,1.239748159989363
mp-850016,Fe3S4,"[Element Fe, Element S]",2,Fe6 S8,0.0,-0.5899503142857121,4.556134474256673
mp-9889,GaS,"[Element Ga, Element S]",2,Ga2 S2,1.866499999999999,-0.759311008906248,3.762279741461088
mp-843,Th2Fe17,"[Element Fe, Element Th]",2,Th2 Fe17,0.0,-0.017917188947366002,8.784760059599169
mp-898,HoAl3,"[Element Al, Element Ho]",2,Ho5 Al15,0.0,-0.463137868749998,5.414844660644439
mp-7988,Cs2O,"[Element Cs, Element O]",2,Cs2 O1,0.583199999999999,-1.180246544770117,4.577833402444146
mp-978288,MgNi,"[Element Mg, Element Ni]",2,Mg3 Ni3,0.0,-0.12345870916666601,4.839478248972208
mp-990084,Na2Cl,"[Element Cl, Element Na]",2,Na2 Cl1,0.0,-1.254793016350574,1.49872241498256
mp-999259,RuC,"[Element C, Element Ru]",2,Ru2 C2,0.0,0.366133023750002,8.89196664776632
mp-998912,TlS,"[Element S, Element Tl]",2,Tl2 S2,0.0,-0.44033642791667005,7.74913849585236
mp-1006815,CsH3,"[Element Cs, Element H]",2,Cs2 H6,0.0,0.7821994453125011,3.2856043053726403
mp-1080314,CeSe2,"[Element Ce, Element Se]",2,Ce6 Se12,0.0,-1.62467008267361,5.547700167193696
mp-1079029,Al2S3,"[Element Al, Element S]",2,Al4 S6,2.4329,-1.195626505687499,2.901711777756086
mp-1078568,Pd3N,"[Element N, Element Pd]",2,Pd6 N2,0.0,0.238673491250001,10.03938711010978
mp-1187591,Ti3N2,"[Element N, Element Ti]",2,Ti6 N4,0.0,-1.6183914215000001,5.095115792311816
mp-1087241,CeSe2,"[Element Ce, Element Se]",2,Ce12 Se24,0.259599999999999,-1.344089897118054,1.6911105308914491
mp-1183728,Co2S3,"[Element Co, Element S]",2,Co4 S6,0.0,-0.48004295168749905,5.102914506050053
mp-1098704,CeSe2,"[Element Ce, Element Se]",2,Ce6 Se12,0.462099999999999,-1.3282912243402771,1.822059727820804
mp-1190699,CO2,"[Element C, Element O]",2,C8 O16,6.496700000000001,-1.7613391708333341,1.740667387540032
mp-1179845,PtO6,"[Element O, Element Pt]",2,Pt2 O12,0.0,-0.13999258357142902,5.184973165299647
mp-1078300,ScF3,"[Element F, Element Sc]",2,Sc2 F6,6.105700000000001,-4.217866632500001,2.583420852964234
mp-1183524,Bi2O3,"[Element Bi, Element O]",2,Bi4 O6,2.0782,-1.6078006035000052,9.638277098656488
mp-1080858,CeSe2,"[Element Ce, Element Se]",2,Ce12 Se24,0.6966999999999991,-1.387687353506943,2.56666281049987
mp-1096882,Cr3N2,"[Element Cr, Element N]",2,Cr6 N4,0.0,-0.314968443500001,6.796649982712781
mp-1186221,Np2O3,"[Element Np, Element O]",2,Np4 O6,0.0,-3.121963102499999,11.110523332837865
mp-1143,Al2O3,"[Element Al, Element O]",2,Al4 O6,5.853700000000001,-3.426551008,3.873499124580814
mp-1047,Ca3N2,"[Element Ca, Element N]",2,Ca6 N4,0.7787000000000001,-0.9430230205000001,2.69645491423948
mp-1190320,Al6Ge5,"[Element Al, Element Ge]",2,Al12 Ge10,0.49010000000000004,0.043884120909089004,3.951034447086679
mp-1074039,Mg9Si5,"[Element Mg, Element Si]",2,Mg18 Si10,0.0,-0.0491699125,2.19496022817882
mp-1202079,Ti21Mn25,"[Element Mn, Element Ti]",2,Ti42 Mn50,0.0,-0.254904387897302,6.37982899337374
mp-14024,Zr3O,"[Element O, Element Zr]",2,Zr6 O2,0.0,-1.546159295624999,6.688575555944507
mp-1198995,Sb3Pd8,"[Element Pd, Element Sb]",2,Sb12 Pd32,0.0,-0.447804905227273,10.952572844028285
mp-1191566,Zn6Sb5,"[Element Sb, Element Zn]",2,Zn12 Sb10,0.0,-0.026090997272728,6.345090812872255
mp-13679,PdF3,"[Element F, Element Pd]",2,Pd2 F6,0.0,-1.4373722,5.299960226461943
mp-1203605,Hf21Re25,"[Element Hf, Element Re]",2,Hf42 Re50,0.0,-0.40932588201087006,16.625604966644488
mp-16860,Mg13Ir3,"[Element Ir, Element Mg]",2,Mg26 Ir6,0.0,-0.23160408812500002,4.786373294578118
mp-18937,V2O3,"[Element O, Element V]",2,V4 O6,0.0,-2.525890519,4.950045704761461
mp-16480,Al3Au8,"[Element Al, Element Au]",2,Al12 Au32,0.0,-0.28178494340909804,14.44468003278309
mp-1196561,Ti21Re25,"[Element Re, Element Ti]",2,Ti42 Re50,0.0,-0.360358712703086,12.219034606031707
mp-19770,Fe2O3,"[Element Fe, Element O]",2,Fe4 O6,0.0,-1.7070913529999991,5.143372282900504
mp-14787,Tm2S3,"[Element S, Element Tm]",2,Tm4 S6,2.5249,-2.367812989687499,5.974014452198265
mp-19399,Cr2O3,"[Element Cr, Element O]",2,Cr4 O6,0.0,-2.366587769,5.1679592815047855
mp-1200207,Cs8Ga11,"[Element Cs, Element Ga]",2,Cs16 Ga22,0.0,-0.212845511842105,4.134504004092031
mp-2024705,ReO3,"[Element O, Element Re]",2,Re2 O6,0.0,-1.6677969046874992,7.291339022658356
mp-1243,Ga2O3,"[Element Ga, Element O]",2,Ga4 O6,2.4025,-2.257564781999998,6.419638605152237
mp-1253219,AlO3,"[Element Al, Element O]",2,Al2 O6,0.0,-1.58773486125,2.44652419393054