material_id,formula_pretty,elements,nelements,composition,band_gap,formation_energy_per_atom,density
mp-636368,Ga3Fe,"[Element Fe, Element Ga]",2,Ga12 Fe4,0.22150000000000003,-0.23824714374999903,7.084328261604737
mp-7507,Sr3Li2,"[Element Li, Element Sr]",2,Sr12 Li8,0.0,0.021185714333331003,2.1790721135734152
mp-6947,SiO2,"[Element O, Element Si]",2,Si2 O4,5.0337,-3.071120229999999,4.134211700498967
mp-680640,Ca11N8,"[Element Ca, Element N]",2,Ca22 N16,0.0,-0.733345649046052,2.579237858153949
mp-714972,V8O,"[Element O, Element V]",2,V16 O2,0.0,0.908732789444442,5.889081685415719
mp-630976,In3Ir,"[Element In, Element Ir]",2,In12 Ir4,0.0,-0.271095426249999,9.874921064796201
mp-672204,Ga3Ru,"[Element Ga, Element Ru]",2,Ga12 Ru4,0.37869999999999904,-0.400380674374999,7.323652110869979
mp-639874,Ta2Al,"[Element Al, Element Ta]",2,Ta20 Al10,0.0,-0.12393910155555302,12.115013158400961
mp-775909,ZrO2,"[Element O, Element Zr]",2,Zr2 O4,3.4318,-3.750962673333332,5.299849538023465
mp-862868,PbBr2,"[Element Br, Element Pb]",2,Pb2 Br4,2.574599999999999,-1.282486231666666,5.266159845116861
mp-776532,HfO2,"[Element Hf, Element O]",2,Hf2 O4,3.902499999999999,-3.982831039166664,9.412302135077686
mp-850222,FeO2,"[Element Fe, Element O]",2,Fe2 O4,0.0,-1.277397556666667,4.612160087531484
mp-8282,Ti2N,"[Element N, Element Ti]",2,Ti4 N2,0.0,-1.454285262361111,4.924737176612915
mp-862855,PaO2,"[Element O, Element Pa]",2,Pa2 O4,0.0,-3.8379910149999983,8.897568060169542
mp-8462,Hf3Al2,"[Element Al, Element Hf]",2,Hf12 Al8,0.0,-0.37701472700000505,10.039069346652234
mp-825,RuO2,"[Element O, Element Ru]",2,Ru2 O4,0.0,-1.457661898333333,7.0691471835481
mp-862773,TeI2,"[Element I, Element Te]",2,Te2 I4,0.7359,-0.288183233888888,3.861754033797121
mp-861727,PuBr2,"[Element Br, Element Pu]",2,Pu2 Br4,0.0,-1.634766577916664,6.270557603644141
mp-861871,SeI2,"[Element I, Element Se]",2,Se2 I4,0.9079,-0.18547824911458102,4.106691533751174
mp-862845,IrCl2,"[Element Cl, Element Ir]",2,Ir2 Cl4,0.0,-0.080397130555558,7.256298704265355
mp-765663,VF3,"[Element F, Element V]",2,V4 F12,0.0,-3.187103753749999,3.347170956085499
mp-862329,ScI2,"[Element I, Element Sc]",2,Sc2 I4,0.0,-1.261712531666666,4.609480933626658
mp-862373,ScS2,"[Element S, Element Sc]",2,Sc2 S4,0.0,-1.495295626510416,2.614189199510279
mp-862871,PbCl2,"[Element Cl, Element Pb]",2,Pb2 Cl4,3.1026,-1.265812036666669,4.573911016136009
mp-856,SnO2,"[Element O, Element Sn]",2,Sn2 O4,0.6519,-2.107482005,6.8731915563027774
mp-861968,ErCl2,"[Element Cl, Element Er]",2,Er2 Cl4,0.0,-2.031574337407411,4.9167481585326716
mp-757186,MnF3,"[Element F, Element Mn]",2,Mn4 F12,1.0699,-2.722296139482759,3.388964063045631
mp-861891,SeBr2,"[Element Br, Element Se]",2,Se2 Br4,0.8221,-0.39100320911458303,3.223955957001967
mp-7599,BeO,"[Element Be, Element O]",2,Be4 O4,7.0846,-3.087509171249999,2.912878239417336
mp-862601,RhI2,"[Element I, Element Rh]",2,Rh2 I4,0.0,-0.355119468333332,6.891490286081067
mp-862565,ScBr2,"[Element Br, Element Sc]",2,Sc2 Br4,0.0,-1.796606146666667,4.009425197304739
mp-865934,YbF2,"[Element F, Element Yb]",2,Yb2 F4,6.7331,-3.500655691666665,7.617806064897751
mp-863657,PmCl2,"[Element Cl, Element Pm]",2,Pm2 Cl4,0.0,-2.184052750833333,4.067667460579999
mp-973953,NdCl2,"[Element Cl, Element Nd]",2,Nd2 Cl4,0.0,-2.210736965277777,3.876126303567342
mp-863016,RbF2,"[Element F, Element Rb]",2,Rb2 F4,1.4293999999999991,-2.115343562499999,2.938348312056823
mp-864641,HoCl2,"[Element Cl, Element Ho]",2,Ho2 Cl4,0.0,-2.05126342166667,4.795422945091673
mp-864616,ICl2,"[Element Cl, Element I]",2,I2 Cl4,0.0,-0.39862044500000005,2.38308632842047
mp-863764,TeBr2,"[Element Br, Element Te]",2,Te2 Br4,0.6717000000000001,-0.541532267222221,3.264719429801853
mp-978846,SnI2,"[Element I, Element Sn]",2,Sn2 I4,1.1995999999999991,-0.719930568333338,4.656436257104245
mp-864986,DyBr2,"[Element Br, Element Dy]",2,Dy2 Br4,0.0,-1.8763145522222202,5.531093688152965
mp-867166,PuO2,"[Element O, Element Pu]",2,Pu2 O4,0.0,-3.388036827916662,9.997309373359718
mp-867259,RhCl2,"[Element Cl, Element Rh]",2,Rh2 Cl4,0.0,-0.5025086455555551,4.7820986854262735
mp-867500,PuI2,"[Element I, Element Pu]",2,Pu2 I4,0.0,-1.117210436249998,6.279472693970191
mp-976802,KF2,"[Element F, Element K]",2,K2 F4,1.445599999999999,-2.117461189083333,2.117093666735462
mp-864647,Hf2N,"[Element Hf, Element N]",2,Hf4 N2,0.0,-1.4078241012500001,13.462054240702814
mp-974603,HgF2,"[Element F, Element Hg]",2,Hg2 F4,0.39629999999999904,-1.513354450833333,7.892027267202212
mp-980938,Tb3Al2,"[Element Al, Element Tb]",2,Tb12 Al8,0.0,-0.37605839100000005,6.789698429118398
mp-864757,YbN2,"[Element N, Element Yb]",2,Yb2 N4,0.0,-1.044708324166668,9.185845049474471
mp-867134,SmCl2,"[Element Cl, Element Sm]",2,Sm2 Cl4,0.0,-2.166715886666667,4.238095887208307
mp-865305,UO2,"[Element O, Element U]",2,U2 O4,0.0,-3.624621146666664,9.460330262685051
mp-865716,YbCl2,"[Element Cl, Element Yb]",2,Yb2 Cl4,5.3995,-2.024524606666666,5.3110561308447455
mp-867358,PuCl2,"[Element Cl, Element Pu]",2,Pu2 Cl4,0.0,-2.152299367916669,5.677403790215326
mp-864918,NpN2,"[Element N, Element Np]",2,Np2 N4,0.0,-1.243068065208338,10.502545649358574
mp-865534,YBr2,"[Element Br, Element Y]",2,Y2 Br4,0.0,-1.890311351666666,4.207695203459933
mp-978985,SnBr2,"[Element Br, Element Sn]",2,Sn2 Br4,1.6560000000000001,-1.132881178333331,4.208455328326587
mp-982635,Tm3Al2,"[Element Al, Element Tm]",2,Tm12 Al8,0.0,-0.381802175000004,7.6161139359478565
mp-982734,WN2,"[Element N, Element W]",2,W2 N4,0.0,-0.238688264375004,10.087622883218065
mp-996,OsO2,"[Element O, Element Os]",2,Os2 O4,0.0,-1.343400869999998,11.467906499374536
mp-1018721,HfO2,"[Element Hf, Element O]",2,Hf2 O4,4.6678000000000015,-3.968927069166663,10.676886282074282
mp-567944,BCl,"[Element B, Element Cl]",2,B8 Cl8,3.3203,-0.41398354576389,1.383851295412335
mp-2574,ZrO2,"[Element O, Element Zr]",2,Zr2 O4,3.8514,-3.786492631666667,6.042619614291532
mp-776104,K2O,"[Element K, Element O]",2,K16 O8,1.169,-1.182810646083332,2.1409947642857032
mp-15700,Zn3As2,"[Element As, Element Zn]",2,Zn24 As16,0.0,-0.139612390999999,5.649808781522065
mp-2048,TlTe,"[Element Te, Element Tl]",2,Tl32 Te32,0.0,-0.469588094687503,8.103293628623124
mp-2071,Zn3P2,"[Element P, Element Zn]",2,Zn24 P16,0.3144,-0.256626845690476,4.691224769052758
mp-510751,CuO,"[Element Cu, Element O]",2,Cu16 O16,0.0,-0.763260695937499,5.055299284372003
mp-567279,ZnCl2,"[Element Cl, Element Zn]",2,Zn2 Cl4,3.8828,-1.289415501666667,3.061692456144388
mp-1103625,Np2Se5,"[Element Np, Element Se]",2,Np8 Se20,0.0,-1.311017612745536,8.839859784517692
mp-2441,Cd3P2,"[Element Cd, Element P]",2,Cd24 P16,0.0018000000000000002,-0.123177781940475,5.541610554931454
mp-1372,Cd3As2,"[Element As, Element Cd]",2,Cd24 As16,0.18050000000000002,-0.06383519799999801,6.192875005406914
mp-23192,HgI2,"[Element Hg, Element I]",2,Hg2 I4,1.3324,-0.564617394374998,5.894833826436059
mp-28212,Nb4O5,"[Element Nb, Element O]",2,Nb8 O10,0.0,-2.467337063333334,6.868690142200689
mp-1198150,Bi2Se3,"[Element Bi, Element Se]",2,Bi16 Se24,0.5469,-0.28597145568750104,6.522073071404545
mp-568742,HgI2,"[Element Hg, Element I]",2,Hg8 I16,1.3751,-0.563892003958332,5.876463458251333
mp-1071032,GeS2,"[Element Ge, Element S]",2,Ge2 S4,0.9558000000000001,-0.608329779999998,3.281863031686954
mp-2766281,TeI7,"[Element I, Element Te]",2,Te2 I14,0.0,0.066266036562499,3.7711029073747193
mp-600109,SiO2,"[Element O, Element Si]",2,Si60 O120,5.5665,-3.242524318888889,1.712186468021019
mp-1201168,TbAu6,"[Element Au, Element Tb]",2,Tb8 Au48,0.0,-0.411350410773806,16.69520826114286
mp-1199277,DyAu6,"[Element Au, Element Dy]",2,Dy8 Au48,0.0,-0.40799249559524003,16.809680302959993
mp-616575,MnB,"[Element B, Element Mn]",2,Mn8 B8,0.0,-0.028448248491375002,4.8112330118194695
mp-1091,SmAu6,"[Element Au, Element Sm]",2,Sm8 Au48,0.0,-0.42189018714285903,16.343049320046912
mp-1208572,VO3,"[Element O, Element V]",2,V16 O48,0.9803000000000001,-1.01279525,2.229901106965233
mp-1120780,AuCl,"[Element Au, Element Cl]",2,Au4 Cl4,1.9497,-0.25400319250000003,7.317217863458515
mp-505366,AuBr,"[Element Au, Element Br]",2,Au4 Br4,1.6885,-0.40299109374999903,7.826089358503499
mp-1189845,FeB,"[Element B, Element Fe]",2,Fe8 B8,0.0,-0.031224897083332002,5.06834709450595
mp-1199447,HoAu6,"[Element Au, Element Ho]",2,Ho8 Au48,0.1695,-0.45736369428571505,16.3215586631204
mp-27725,AuI,"[Element Au, Element I]",2,Au4 I4,2.0942,-0.265866406249999,7.791374513900841
mp-1014303,Cr3N2,"[Element Cr, Element N]",2,Cr3 N2,0.0,-0.511423514166662,6.452268059679345
mp-1007664,InPd3,"[Element In, Element Pd]",2,In1 Pd3,0.0,-0.48664728499999604,11.227978564642203
mp-1009827,BaSi2,"[Element Ba, Element Si]",2,Ba1 Si2,0.0,0.166200966666666,3.058515756360203
mp-1008806,ReC2,"[Element C, Element Re]",2,Re1 C2,0.0,1.503486902916662,13.399974714474334
mp-1007855,FeNi3,"[Element Fe, Element Ni]",2,Fe1 Ni3,0.0,-0.072726832499999,8.712064155440634
mp-1007862,Fe3Ni,"[Element Fe, Element Ni]",2,Fe3 Ni1,0.0,0.042764360000001,8.092877146430878
mp-1014229,Ti2Zn,"[Element Ti, Element Zn]",2,Ti2 Zn1,0.0,-0.156692875555556,5.540104326272281
mp-1009238,Hf2Tl,"[Element Hf, Element Tl]",2,Hf2 Tl1,0.0,-0.030792373333336003,14.085572349911455
mp-10106,Ca2As,"[Element As, Element Ca]",2,Ca4 As2,0.0,-1.110494664166665,3.130575687642953
mp-1008601,ZrAg2,"[Element Ag, Element Zr]",2,Zr1 Ag2,0.0013000000000000002,-0.045560235000001004,9.01194804739883
mp-1009657,CaN2,"[Element Ca, Element N]",2,Ca1 N2,0.0,-0.639265689166666,2.956401288995216
mp-1018102,ZrPd2,"[Element Pd, Element Zr]",2,Zr1 Pd2,0.0,-0.7919823950000001,9.778865046536628
mp-1008284,Cr3Ni,"[Element Cr, Element Ni]",2,Cr3 Ni1,0.0,0.19039660125000002,7.733362457789992
mp-1018105,Zr2Zn,"[Element Zn, Element Zr]",2,Zr2 Zn1,0.0,-0.201094288333334,6.717491841126622
mp-1018104,Zr2Cd,"[Element Cd, Element Zr]",2,Zr2 Cd1,0.0,-0.13604649333333402,7.323383407337112
mp-1014231,Hf2Zn,"[Element Hf, Element Zn]",2,Hf2 Zn1,0.0,-0.20263765833333902,12.042921594000443
mp-1017511,Cr3Fe,"[Element Cr, Element Fe]",2,Cr3 Fe1,0.0,0.2702252875,7.601120734048424
mp-1018121,TiPd2,"[Element Pd, Element Ti]",2,Ti1 Pd2,0.0,-0.6480812155555521,9.199063316304281
mp-1008617,YbAg2,"[Element Ag, Element Yb]",2,Yb1 Ag2,0.0,-0.35908485500000104,10.680444474271301
mp-1008682,TiS2,"[Element S, Element Ti]",2,Ti1 S2,0.0,-1.163345759444443,3.9162215053456
mp-1009071,IrC2,"[Element C, Element Ir]",2,Ir1 C2,0.0,1.454949671666663,11.315511286304403
mp-1011375,CeSe2,"[Element Ce, Element Se]",2,Ce1 Se2,0.0,-1.772538694895832,7.121580729585028
mp-1018103,ZrAu2,"[Element Au, Element Zr]",2,Zr1 Au2,0.0,-0.6513819550000001,14.312333165127647
mp-1018123,TiAu2,"[Element Au, Element Ti]",2,Ti1 Au2,0.0,-0.48334265888888606,14.476013832700799
mp-1008860,NbS2,"[Element Nb, Element S]",2,Nb1 S2,0.0,-1.079420891666667,4.14551089052322
mp-1009834,Al2Ru,"[Element Al, Element Ru]",2,Al2 Ru1,0.0,-0.7613669216666681,6.260821543423772
mp-1018113,YAu2,"[Element Au, Element Y]",2,Y1 Au2,0.0,-0.9331089233333311,12.811237416822268
mp-1007923,CrNi3,"[Element Cr, Element Ni]",2,Cr1 Ni3,0.0,0.0401541225,8.71155801231758
mp-1018156,Hf2Cd,"[Element Cd, Element Hf]",2,Hf2 Cd1,0.0,-0.09470776,12.073691940713589
mp-1022728,Cu3O2,"[Element Cu, Element O]",2,Cu3 O2,0.0,-0.603458745999999,6.147635985624615
mp-1018130,PaC2,"[Element C, Element Pa]",2,Pa1 C2,0.0,-0.38621179999999805,10.60375664710676
mp-1018179,AlAu2,"[Element Al, Element Au]",2,Al1 Au2,0.0,-0.317411696666667,14.216788466360812
mp-1018148,ScAu2,"[Element Au, Element Sc]",2,Sc1 Au2,0.0,-0.8795857516666671,13.220691580038213
mp-1039409,CaMg3,"[Element Ca, Element Mg]",2,Ca1 Mg3,0.0,-0.041096352653061004,1.792493065959835
mp-1018128,ScAg2,"[Element Ag, Element Sc]",2,Sc1 Ag2,0.0,-0.290682248333332,7.747311387233375
mp-1018124,Ti2Rh,"[Element Rh, Element Ti]",2,Ti2 Rh1,0.0,-0.625762542222221,7.215172745241706
mp-10564,SrN2,"[Element N, Element Sr]",2,Sr1 N2,0.0,-0.623243369166668,4.203586116997399
mp-1062510,NdPd2,"[Element Nd, Element Pd]",2,Nd1 Pd2,0.0,-0.5326955424999981,8.501534978706461
mp-1018149,ScCu2,"[Element Cu, Element Sc]",2,Sc1 Cu2,0.0,-0.23641582500000102,6.395130303773691
mp-1062078,ErPd2,"[Element Er, Element Pd]",2,Er1 Pd2,0.0,-0.6560336977777771,10.027530258926104
mp-1018177,EuC2,"[Element C, Element Eu]",2,Eu1 C2,0.0,-0.18158812499999902,5.75110831239337
mp-1018154,Hf2Hg,"[Element Hf, Element Hg]",2,Hf2 Hg1,0.0,-0.160965005833342,14.391113354435534
mp-1062893,YPd2,"[Element Pd, Element Y]",2,Y1 Pd2,0.0,-0.624840596416665,7.567242529019777
mp-1062597,HoPd2,"[Element Ho, Element Pd]",2,Ho1 Pd2,0.0,-0.6675735515833351,9.56152343867946
mp-1018152,LuAu2,"[Element Au, Element Lu]",2,Lu1 Au2,0.0,-0.9748493022222241,15.983473679032782
mp-1022722,Bi3O2,"[Element Bi, Element O]",2,Bi3 O2,0.0,-0.9679149480000011,9.831671955002976
mp-10201,Ge2Mo,"[Element Ge, Element Mo]",2,Ge2 Mo1,0.0,-0.10556623333333401,8.877157007367963
mp-1038790,Ce3Mg,"[Element Ce, Element Mg]",2,Ce3 Mg1,0.0,0.075256117916666,6.7266847213225205
mp-1039229,Ca3Zn,"[Element Ca, Element Zn]",2,Ca3 Zn1,0.0,0.024939257500000003,2.326637025344804
mp-1060281,BN,"[Element B, Element N]",2,B1 N1,3.5086,-0.6074033106250011,1.376461452285749
mp-1018131,LuAg2,"[Element Ag, Element Lu]",2,Lu1 Ag2,0.0,-0.351867848888886,10.827977480394228
mp-1018153,HfAu2,"[Element Au, Element Hf]",2,Hf1 Au2,0.0,-0.6161256433333331,17.35570403576015
mp-1039344,Sn3Bi,"[Element Bi, Element Sn]",2,Sn3 Bi1,0.0,0.10706574875000201,8.032234325932897
mp-1018166,AlTc2,"[Element Al, Element Tc]",2,Al1 Tc2,0.0,-0.467612646666665,8.861367365024536
mp-1039293,Mg3Cd,"[Element Cd, Element Mg]",2,Mg3 Cd1,0.0,-0.013019477499998001,3.558072626005422
mp-1039347,SnBi3,"[Element Bi, Element Sn]",2,Sn1 Bi3,0.0,0.133584621250001,9.891170528977836
mp-1018178,Ba2Zn,"[Element Ba, Element Zn]",2,Ba2 Zn1,0.0,-0.144461570000001,4.30318879913481
mp-1062974,PrPd2,"[Element Pd, Element Pr]",2,Pr1 Pd2,0.0,-0.5097152205555541,8.309969580841136
mp-1038916,MgAl3,"[Element Al, Element Mg]",2,Mg1 Al3,0.0,0.016106823750000002,2.534458748542284
mp-1061691,MgNi2,"[Element Mg, Element Ni]",2,Mg1 Ni2,0.0,-0.031509911666666,6.117067862056031
mp-1061979,TbPd2,"[Element Pd, Element Tb]",2,Tb1 Pd2,0.0,-0.645769656999997,9.257230162258661
mp-1071453,Nd2Bi,"[Element Bi, Element Nd]",2,Nd4 Bi2,0.0,-0.669720476666666,8.534132457298446
mp-1062989,CeO2,"[Element Ce, Element O]",2,Ce1 O2,0.0,-3.159682473333332,7.6509042861691015
mp-1063016,SmPd2,"[Element Pd, Element Sm]",2,Sm1 Pd2,0.0,-0.5886469066666671,8.858729149441546
mp-1065309,ZrAl3,"[Element Al, Element Zr]",2,Zr1 Al3,0.0,-0.497545876249999,4.10062080281996
mp-1062984,ThCo2,"[Element Co, Element Th]",2,Th1 Co2,0.0,0.24137104816666002,10.943636043289327
mp-1063174,GdAu2,"[Element Au, Element Gd]",2,Gd1 Au2,0.0,-0.863354680000005,14.223678846308529
mp-1063255,LaPd2,"[Element La, Element Pd]",2,La1 Pd2,0.0,-0.6103124780000021,8.132070367747533
mp-1063239,DyPd2,"[Element Dy, Element Pd]",2,Dy1 Pd2,0.0,-0.6603187718333311,9.478306541459883
mp-1070844,ThPt2,"[Element Pt, Element Th]",2,Th2 Pt4,0.0,-1.3453911049999951,16.333209975847723
mp-1063224,HoHg2,"[Element Hg, Element Ho]",2,Ho1 Hg2,0.0,-0.403767101666668,12.629508931473767
mp-1063522,CePd2,"[Element Ce, Element Pd]",2,Ce1 Pd2,0.0,-0.52642919583333,8.660970461796424
mp-1064492,CaO,"[Element Ca, Element O]",2,Ca2 O2,1.7422,-3.096079154999999,1.9665172353429121
mp-1071848,Pr2Sb,"[Element Pr, Element Sb]",2,Pr4 Sb2,0.0,-1.001009226111108,7.033347926951816
mp-1078755,SbPt3,"[Element Pt, Element Sb]",2,Sb2 Pt6,0.0,-0.201667266249998,17.461310765888953
mp-1062988,ThFe2,"[Element Fe, Element Th]",2,Th1 Fe2,0.0,0.305973706666668,9.873541106132032
mp-1072244,EuS,"[Element Eu, Element S]",2,Eu3 S3,0.0,-2.302796208906253,3.80830323345804
mp-1070580,Al3Ru2,"[Element Al, Element Ru]",2,Al3 Ru2,0.0,-0.7752910740000001,6.946998862871915
mp-1077018,Sm2Sb,"[Element Sb, Element Sm]",2,Sm4 Sb2,0.0,-0.992230425000002,7.9001249003481195
mp-1077367,Ce2Bi,"[Element Bi, Element Ce]",2,Ce4 Bi2,0.0,-0.8024929899999991,8.264244148697601
mp-1077718,NdO2,"[Element Nd, Element O]",2,Nd1 O2,0.0,-3.069782185833332,6.420792814431336
mp-1063133,CaPd2,"[Element Ca, Element Pd]",2,Ca1 Pd2,0.0,-0.417814154999999,6.209758965621811
mp-1063517,YbPd2,"[Element Pd, Element Yb]",2,Yb1 Pd2,0.0,-0.68003868833333,10.353762471928546
mp-1077063,La2Bi,"[Element Bi, Element La]",2,La4 Bi2,0.0,-0.9098970450000031,7.807105683058126
mp-1063311,EuPd2,"[Element Eu, Element Pd]",2,Eu1 Pd2,0.0,-0.43773676166666503,8.35414260588044
mp-1078721,InPd3,"[Element In, Element Pd]",2,In2 Pd6,0.0,-0.492223713749996,11.219554477336656
mp-1077777,Pr2Bi,"[Element Bi, Element Pr]",2,Pr4 Bi2,0.0,-0.8276754644444391,8.167669395655157
mp-1070103,Hf2Pt3,"[Element Hf, Element Pt]",2,Hf2 Pt3,0.0,-1.221517304000002,17.850001175957054
mp-1078602,ZrIn3,"[Element In, Element Zr]",2,Zr2 In6,0.0,-0.32645584000000105,8.092352672225987
mp-1072543,ZrN2,"[Element N, Element Zr]",2,Zr1 N2,0.0,-0.604532919722222,5.515408652971665
mp-1094514,Mg3Sn,"[Element Mg, Element Sn]",2,Mg3 Sn1,0.0,-0.075280627499999,3.550151703731973
mp-1094496,Y3Mg,"[Element Mg, Element Y]",2,Y3 Mg1,0.0,0.07403958125,4.017726616270206
mp-1079938,TlPd3,"[Element Pd, Element Tl]",2,Tl2 Pd6,0.0,-0.237091308749995,13.087841379496885
mp-1094064,SbH3,"[Element H, Element Sb]",2,Sb1 H3,0.0,0.68018504125,5.815553595715426
mp-1080001,ZrGa3,"[Element Ga, Element Zr]",2,Zr2 Ga6,0.0,-0.5263271275,7.311593301193733
mp-1094089,NiS2,"[Element Ni, Element S]",2,Ni1 S2,0.0,-0.015561664999999001,4.441552677698093
mp-1094061,SmCo12,"[Element Co, Element Sm]",2,Sm1 Co12,0.0,0.193721007307691,8.739844963548348
mp-1094472,MgZr3,"[Element Mg, Element Zr]",2,Mg1 Zr3,0.0,0.019953511249998,5.494310498987036
mp-1078858,U3Si,"[Element Si, Element U]",2,U6 Si2,0.0,-0.27035390875000304,16.169459150490493
mp-1094174,LaMg3,"[Element La, Element Mg]",2,La1 Mg3,0.0,-0.10879881000000001,3.348023510290169
mp-10909,AlRe2,"[Element Al, Element Re]",2,Al1 Re2,0.0,-0.32302287499999705,15.507390075763249
mp-1094784,CaZn3,"[Element Ca, Element Zn]",2,Ca1 Zn3,0.0,-0.14268281999999902,5.105213079276305
mp-1103919,CeMg12,"[Element Ce, Element Mg]",2,Ce1 Mg12,0.0,-0.035442006153845004,2.312501813344296
mp-1094159,Li3Mg,"[Element Li, Element Mg]",2,Li3 Mg1,0.0,-0.022364113749999002,0.9403698748862551
mp-1094255,Zr3Sn,"[Element Sn, Element Zr]",2,Zr3 Sn1,0.0,-0.37934082625000004,7.208326077387687
mp-1094376,MgTi3,"[Element Mg, Element Ti]",2,Mg1 Ti3,0.0,0.15328649125000002,3.875017057350789
mp-1094433,Mg3Zn,"[Element Mg, Element Zn]",2,Mg3 Zn1,0.0,0.010816961250000002,2.906654383751529
mp-1100766,Ni3Pt,"[Element Ni, Element Pt]",2,Ni3 Pt1,0.0,-0.069045414999999,12.982378614986578
mp-1100,YbC2,"[Element C, Element Yb]",2,Yb1 C2,1.0375,-0.37701444500000003,8.48846997089982
mp-1103808,La4H9,"[Element H, Element La]",2,La4 H9,0.0,-0.7372688222115381,5.23754008222749
mp-1103916,TmZn12,"[Element Tm, Element Zn]",2,Tm1 Zn12,0.0,-0.19085303923076902,8.13414035002702
mp-1094676,Mg3Bi,"[Element Bi, Element Mg]",2,Mg3 Bi1,0.0,-0.045327941249999004,4.8483307926923835
mp-1094185,HfMg3,"[Element Hf, Element Mg]",2,Hf1 Mg3,0.0,0.273958138749999,4.695148331138621
mp-1094266,Mg3Ti,"[Element Mg, Element Ti]",2,Mg3 Ti1,0.0,0.246140022916666,2.364447523652572
mp-1094567,LiMg3,"[Element Li, Element Mg]",2,Li1 Mg3,0.0,-0.013500748333333002,1.512301101929622
mp-1094771,MgCd3,"[Element Cd, Element Mg]",2,Mg1 Cd3,0.0,-0.011064343749999001,7.054558230359055
mp-1094171,La3Mg,"[Element La, Element Mg]",2,La3 Mg1,0.0,-0.006345957500001001,5.485152657938905
mp-1088,YbGa4,"[Element Ga, Element Yb]",2,Yb1 Ga4,0.0,-0.285951890999999,8.000483046886027
mp-1094249,MgSn3,"[Element Mg, Element Sn]",2,Mg1 Sn3,0.0,-0.007075947499997,6.18230074397948
mp-1094476,MgZn3,"[Element Mg, Element Zn]",2,Mg1 Zn3,0.0,-0.027254803749999,5.5552040312987145
mp-1094312,ZrSn3,"[Element Sn, Element Zr]",2,Zr1 Sn3,0.0,-0.14085843749999602,7.61695996085523