material_id,formula_pretty,elements,nelements,composition,band_gap,formation_energy_per_atom,density
mp-1018686,ErH2,"[Element Er, Element H]",2,Er2 H4,0.0,-0.594056321944445,8.221693081774847
mp-1016073,CrN2,"[Element Cr, Element N]",2,Cr12 N24,0.012199999999999002,-0.073689567916665,1.487382302134612
mp-10187,TeIr,"[Element Ir, Element Te]",2,Te2 Ir2,0.0,0.22121343906250202,12.809571921440073
mp-1018851,OsN2,"[Element N, Element Os]",2,Os2 N4,0.0,0.659642616666668,12.228224359188069
mp-1018019,PbS,"[Element Pb, Element S]",2,Pb2 S2,0.011899999999999002,-0.7220768687499991,7.361777503033111
mp-1018053,InCu,"[Element Cu, Element In]",2,In2 Cu2,0.0,0.012688274999998,7.9424701357118455
mp-1018730,In2Cu,"[Element Cu, Element In]",2,In4 Cu2,0.0,0.16210695626190302,7.401481372109817
mp-1018733,IrN2,"[Element Ir, Element N]",2,Ir2 N4,0.0,0.749338204999996,11.763310604410272
mp-1018795,Mg2Sn,"[Element Mg, Element Sn]",2,Mg4 Sn2,0.0,-0.083967841666666,3.996950425646218
mp-1017510,MgTe,"[Element Mg, Element Te]",2,Mg2 Te2,0.9877,-1.016706025833334,4.780011039354356
mp-1019054,ReC2,"[Element C, Element Re]",2,Re2 C4,0.0,0.42224223458333104,11.98694542109897
mp-1019272,TaN2,"[Element N, Element Ta]",2,Ta2 N4,0.0,-0.705446997305552,10.941522597320967
mp-1019051,ReC2,"[Element C, Element Re]",2,Re2 C4,0.0,0.8232355908333341,12.153862773864859
mp-1018948,Re2N,"[Element N, Element Re]",2,Re4 N2,0.0,-0.025098157916663002,18.54364649265461
mp-1019316,Tc2N,"[Element N, Element Tc]",2,Tc4 N2,0.0,-0.23295873624999702,10.426276545847113
mp-1018947,PtN2,"[Element N, Element Pt]",2,Pt2 N4,0.0,0.6879641883333291,10.535977776537214
mp-1019317,TcB2,"[Element B, Element Tc]",2,Tc2 B4,0.0,-0.472480345000001,7.383276609344082
mp-1019258,SrF2,"[Element F, Element Sr]",2,Sr2 F4,5.9375,-4.037848026666668,4.759927414125086
mp-1019083,ReN2,"[Element N, Element Re]",2,Re2 N4,0.0,0.194143399861114,12.304609350060323
mp-1039292,Ca3Zn,"[Element Ca, Element Zn]",2,Ca6 Zn2,0.0,-0.004752057499999,2.402818792041884
mp-10204,MnSe,"[Element Mn, Element Se]",2,Mn2 Se2,0.0,-0.9382177592726301,5.772184944057074
mp-1019276,TaSe2,"[Element Se, Element Ta]",2,Ta2 Se4,0.0,-0.932053956819444,8.022705992516602
mp-1025425,Co3H,"[Element Co, Element H]",2,Co6 H2,0.0,-0.021738452812500003,8.890454931726552
mp-1025503,Cr3Co,"[Element Co, Element Cr]",2,Cr6 Co2,0.0,0.25212390500000104,7.812967261862825
mp-10256,VTe,"[Element Te, Element V]",2,V2 Te2,0.0,-0.37813861083333306,6.6812062779161785
mp-1039199,CaMg2,"[Element Ca, Element Mg]",2,Ca2 Mg4,0.0,0.086416871666666,1.683108133931243
mp-1039262,CaZn3,"[Element Ca, Element Zn]",2,Ca2 Zn6,0.0,-0.20128677249999902,4.962548465517407
mp-1023,Ho2Co17,"[Element Co, Element Ho]",2,Ho4 Co34,0.0,-0.078507607631578,9.217537868031132
mp-1025440,CuGe3,"[Element Cu, Element Ge]",2,Cu2 Ge6,0.0,0.307625651666667,6.397595510938242
mp-1025406,LiP3,"[Element Li, Element P]",2,Li2 P6,0.0,0.296448823377975,2.657040329408825
mp-1025443,ThCd3,"[Element Cd, Element Th]",2,Th2 Cd6,0.0,-0.187694853749995,9.489121616213934
mp-1022717,CeSe2,"[Element Ce, Element Se]",2,Ce4 Se8,0.2917,-1.747390607395832,5.077359072618297
mp-1039470,Ce3Mg,"[Element Ce, Element Mg]",2,Ce6 Mg2,0.0,0.12091951541666601,6.676691935643126
mp-1019322,Te2W,"[Element Te, Element W]",2,Te4 W2,0.9389000000000001,-0.082943286666666,8.940246486383893
mp-1039075,Mg3Bi,"[Element Bi, Element Mg]",2,Mg6 Bi2,0.0,-0.050506743750000006,4.838318059631238
mp-1039119,MgAl3,"[Element Al, Element Mg]",2,Mg2 Al6,0.0,0.025411212500000002,2.528568549221691
mp-1039227,Ca2Mg,"[Element Ca, Element Mg]",2,Ca4 Mg2,0.0,0.052726679166666006,1.5973226432844432
mp-1039217,MgCd2,"[Element Cd, Element Mg]",2,Mg2 Cd4,0.0,0.029191821666668002,6.133313646361882
mp-1025402,SrCu,"[Element Cu, Element Sr]",2,Sr4 Cu4,0.0,-0.059502690000000004,4.017949455832926
mp-1039383,CaMg3,"[Element Ca, Element Mg]",2,Ca2 Mg6,0.0,-0.03203604125,1.756927289787234
mp-1039123,CaZn,"[Element Ca, Element Zn]",2,Ca2 Zn2,0.0,0.21589036500000003,2.414982526000319
mp-1039269,Ce2Mg,"[Element Ce, Element Mg]",2,Ce4 Mg2,0.0,0.058787650555553,6.566009745717829
mp-1077788,BPt2,"[Element B, Element Pt]",2,B2 Pt4,0.0,-0.202928745833328,17.31379483581424
mp-1066274,PtPb,"[Element Pb, Element Pt]",2,Pt2 Pb2,0.0,-0.311851534999995,14.913696579378406
mp-1077814,Cs2S,"[Element Cs, Element S]",2,Cs4 S2,2.079099999999999,-1.125713528437498,4.06293933572594
mp-1072712,NbS2,"[Element Nb, Element S]",2,Nb2 S4,0.0,-1.330876201666663,3.039372449123209
mp-1066078,BiPt,"[Element Bi, Element Pt]",2,Bi2 Pt2,0.0,-0.294186384999996,14.577696454779844
mp-1039492,CeMg2,"[Element Ce, Element Mg]",2,Ce2 Mg4,0.0,-0.013110206666664001,4.348223168457103
mp-10648,YbSe,"[Element Se, Element Yb]",2,Yb2 Se2,2.256599999999999,-1.62141888203125,7.691412520458469
mp-1064554,BiRh,"[Element Bi, Element Rh]",2,Bi2 Rh2,0.0,-0.19327081000000101,12.305088678219295
mp-1064367,BaPd,"[Element Ba, Element Pd]",2,Ba2 Pd2,0.0,-0.549201019999999,6.382904311839397
mp-10598,CuSn,"[Element Cu, Element Sn]",2,Cu2 Sn2,0.0,0.009223705,8.128451418295157
mp-1039495,Mg2Cd,"[Element Cd, Element Mg]",2,Mg4 Cd2,0.0,0.022777558333334003,3.960416771952051
mp-1039581,CeMg,"[Element Ce, Element Mg]",2,Ce2 Mg2,0.0,1.015583590833333,3.145691644832515
mp-1072086,TaS2,"[Element S, Element Ta]",2,Ta2 S4,0.0,-1.364692595777774,4.7937930768121095
mp-1072192,TiS2,"[Element S, Element Ti]",2,Ti2 S4,0.0,-0.8629669294444431,4.041041179932122
mp-10678,AuSe,"[Element Au, Element Se]",2,Au2 Se2,0.0,0.112159920468755,10.558475426501298
mp-1077021,TiS2,"[Element S, Element Ti]",2,Ti2 S4,0.20550000000000002,-1.465773792777777,2.956462074706399
mp-10761,FeTe,"[Element Fe, Element Te]",2,Fe2 Te2,0.0,-0.16270179583333202,8.217916145351772
mp-1077232,WN2,"[Element N, Element W]",2,W2 N4,1.2238,-0.37148714250000103,12.25512560073787
mp-1065394,MoN,"[Element Mo, Element N]",2,Mo2 N2,0.0,-0.5323769825000001,8.966646470274918
mp-10656,TmTe,"[Element Te, Element Tm]",2,Tm2 Te2,0.0,-1.3414941825,8.748390948495915
mp-1077243,K2Zr,"[Element K, Element Zr]",2,K4 Zr2,0.0,1.317181726333333,1.917019056946339
mp-1063752,BRh,"[Element B, Element Rh]",2,B2 Rh2,0.0,-0.21550480874999703,8.828158977086561
mp-1066162,IrN,"[Element Ir, Element N]",2,Ir2 N2,0.0,1.012021727500002,15.90253694865138
mp-1041974,SbO2,"[Element O, Element Sb]",2,Sb2 O4,0.0,-1.436811351666666,4.81744970738759
mp-1078,CaCd2,"[Element Ca, Element Cd]",2,Ca4 Cd8,0.0,-0.30077544499999603,5.852010594873304
mp-1065577,MgO,"[Element Mg, Element O]",2,Mg2 O2,0.0,-2.974865565,3.043541834422278
mp-1041983,BiO2,"[Element Bi, Element O]",2,Bi2 O4,0.0,-1.233326828333333,6.5247871859968445
mp-1072113,NbSe2,"[Element Nb, Element Se]",2,Nb2 Se4,0.0,-0.9832841210416651,5.829314073397019
mp-10744,Si3Pt2,"[Element Pt, Element Si]",2,Si6 Pt4,0.0,-0.5443171599999971,9.898209726812928
mp-1041980,NiO2,"[Element Ni, Element O]",2,Ni2 O4,1.2727,-0.6618801483333321,3.885268870282556
mp-1041984,SnO2,"[Element O, Element Sn]",2,Sn2 O4,2.0888,-1.9454555183333322,5.131959512605815
mp-1079249,TbH3,"[Element H, Element Tb]",2,Tb2 H6,0.0,-0.7133639315625011,6.905444043658423
mp-1078753,LiTl,"[Element Li, Element Tl]",2,Li4 Tl4,0.0,-0.079448339583333,6.956208888749542
mp-1078766,GaFe3,"[Element Fe, Element Ga]",2,Ga2 Fe6,0.0,-0.095168488124999,8.0889151606326
mp-1079072,Mg3In,"[Element In, Element Mg]",2,Mg6 In2,0.0,-0.073043955416665,3.5338327832107073
mp-1079065,Zr3Co,"[Element Co, Element Zr]",2,Zr6 Co2,0.0,0.16636437750000202,7.11604168726176
mp-1078389,MoN,"[Element Mo, Element N]",2,Mo4 N4,0.0,-0.5354622800000001,9.111674120566528
mp-1078873,Mn3Ge,"[Element Ge, Element Mn]",2,Mn6 Ge2,0.0,-0.053404114698277,8.128816307880612
mp-1079251,W2N3,"[Element N, Element W]",2,W4 N6,0.0,-0.217129423250003,11.64122878949381
mp-1079544,KTl,"[Element K, Element Tl]",2,K4 Tl4,0.0,-0.053407131541668006,5.153375726001724
mp-1078964,Mg3Au,"[Element Au, Element Mg]",2,Mg6 Au2,0.0,-0.37611366208333,5.613373360269527
mp-1078610,EuGe3,"[Element Eu, Element Ge]",2,Eu2 Ge6,0.0,-0.363430304999997,7.013418166317924
mp-1078842,GdHg3,"[Element Gd, Element Hg]",2,Gd2 Hg6,0.0,-0.39856035187500505,13.138550786492022
mp-1078584,Mn3Ga,"[Element Ga, Element Mn]",2,Mn6 Ga2,0.0,-0.038940367586208,8.126337808243669
mp-1080055,NpH3,"[Element H, Element Np]",2,Np2 H6,0.0,-0.520813326249999,9.91922806411993
mp-1079348,B3Os2,"[Element B, Element Os]",2,B6 Os4,0.0,-0.273454191500002,14.279638263563001
mp-1079863,TiCo3,"[Element Co, Element Ti]",2,Ti2 Co6,0.0,-0.11211608541666601,8.007356005916918
mp-1079393,Co3Si,"[Element Co, Element Si]",2,Co6 Si2,0.0,-0.1794570825,7.985827454991447
mp-1079832,ScTe,"[Element Sc, Element Te]",2,Sc4 Te4,0.0,-1.37448327958333,5.613768951912024
mp-1080098,Nd3Al,"[Element Al, Element Nd]",2,Nd6 Al2,0.0,-0.229044203124999,6.486766794944658
mp-1080254,Cs2Se,"[Element Cs, Element Se]",2,Cs4 Se2,1.826899999999999,-1.191693998020833,4.3673692588901964
mp-1078234,BaGe3,"[Element Ba, Element Ge]",2,Ba2 Ge6,0.0,-0.359674426250001,5.6510403480369025
mp-1079266,Pr3Al,"[Element Al, Element Pr]",2,Pr6 Al2,0.0,-0.212668897499998,6.1760797023597505
mp-1079298,NaTl,"[Element Na, Element Tl]",2,Na4 Tl4,0.0,-0.112446967500002,6.399517960261013
mp-1079071,EuTl3,"[Element Eu, Element Tl]",2,Eu2 Tl6,0.0,-0.32963509625000104,11.018447892612487
mp-1079267,LiHg3,"[Element Hg, Element Li]",2,Li2 Hg6,0.0,-0.20081246604166803,11.634411686135095
mp-1079229,Mg3Pd,"[Element Mg, Element Pd]",2,Mg6 Pd2,0.0,-0.375712600833334,3.854800746091356
mp-1079370,ErH3,"[Element Er, Element H]",2,Er2 H6,0.0,-0.5253469469791661,8.596701196832468
mp-1079494,ReC,"[Element C, Element Re]",2,Re4 C4,0.0,0.5961835281250031,16.013977455418022
mp-1080263,CeSe2,"[Element Ce, Element Se]",2,Ce2 Se4,0.12989999999999902,-1.658446981562498,5.198247584673962
mp-1079240,LiAl,"[Element Al, Element Li]",2,Li4 Al4,0.0,-0.12185767833333301,1.514728205546188
mp-1080132,EuHg3,"[Element Eu, Element Hg]",2,Eu2 Hg6,0.0,-0.471465558125004,11.9751517684824
mp-1093999,Zn2Ag,"[Element Ag, Element Zn]",2,Zn8 Ag4,0.0,-0.026481081666669,8.762994958258375
mp-1084828,La3Al,"[Element Al, Element La]",2,La6 Al2,0.0,-0.257904241249999,5.930068858469859
mp-1094431,Mg2Zn,"[Element Mg, Element Zn]",2,Mg4 Zn2,0.0,0.020084416666666,3.156111096797306
mp-1094123,MoO2,"[Element Mo, Element O]",2,Mo2 O4,0.47879999999999906,-1.663972728333333,5.740191368599116
mp-1094151,CeSe2,"[Element Ce, Element Se]",2,Ce12 Se24,1.016499999999999,-1.402409966840277,1.3860779915480501
mp-1094241,MgSn2,"[Element Mg, Element Sn]",2,Mg2 Sn4,0.0,-0.01719127833333,5.751427865351721
mp-1084805,YH3,"[Element H, Element Y]",2,Y2 H6,0.0,-0.7068633590625001,3.97180627826331
mp-1080725,SnH4,"[Element H, Element Sn]",2,Sn2 H8,0.0,0.5226330250000011,4.636703693622052
mp-1080608,SrIn3,"[Element In, Element Sr]",2,Sr2 In6,0.0,-0.299736747499997,6.134355576095235
mp-1080552,SrHg3,"[Element Hg, Element Sr]",2,Sr2 Hg6,0.0,-0.42049729312500406,10.466854699679395
mp-1094027,TmTe,"[Element Te, Element Tm]",2,Tm2 Te2,0.0,-1.407513714999999,8.697992415945793
mp-1094169,LaMg3,"[Element La, Element Mg]",2,La2 Mg6,0.0,-0.06922457250000001,3.206294900234052
mp-1087479,CrCo3,"[Element Co, Element Cr]",2,Cr2 Co6,0.0,0.13707439000000002,8.560012851195824
mp-1094121,MgAg2,"[Element Ag, Element Mg]",2,Mg4 Ag8,0.0,-0.06458754194444201,6.631234098655039
mp-1094294,Sr2Mg,"[Element Mg, Element Sr]",2,Sr4 Mg2,0.0,0.095480066666667,2.430086581264991
mp-1094338,SrMg3,"[Element Mg, Element Sr]",2,Sr2 Mg6,0.0,0.015179146249999002,2.236121179849275
mp-1094397,Y3Mg,"[Element Mg, Element Y]",2,Y6 Mg2,0.0,0.037731221250001,3.9611339096567493
mp-1094466,Mg3Zr,"[Element Mg, Element Zr]",2,Mg6 Zr2,0.0,0.06476887374999901,3.147931136876232
mp-1080330,CeSe2,"[Element Ce, Element Se]",2,Ce2 Se4,0.0,-1.792611956562498,7.001971462494766
mp-1093992,ZrN,"[Element N, Element Zr]",2,Zr2 N2,0.0,-1.9359097643750012,7.235588465119544
mp-1094034,Ti3C2,"[Element C, Element Ti]",2,Ti6 C4,0.0,-0.7959923699999991,4.521629297630674
mp-1094192,Mg2Sn,"[Element Mg, Element Sn]",2,Mg4 Sn2,0.0,-0.008361031666666,3.840014184616221
mp-1094548,Mg3Sb,"[Element Mg, Element Sb]",2,Mg6 Sb2,0.0,-0.160081318749999,3.5037677660366553
mp-1094309,Sr3Mg,"[Element Mg, Element Sr]",2,Sr6 Mg2,0.0,0.035734905833331006,2.678560364906348
mp-1094362,Mg2Ti,"[Element Mg, Element Ti]",2,Mg4 Ti2,0.0,0.16654192888888802,2.632262773091533
mp-1094451,Mg3Zn,"[Element Mg, Element Zn]",2,Mg6 Zn2,0.0,-0.026333484999999,2.940288086548909
mp-1094532,Mg2Sb,"[Element Mg, Element Sb]",2,Mg4 Sb2,0.0,-0.06429879333333201,3.8390440897903533
mp-1094598,Li3Mg,"[Element Li, Element Mg]",2,Li6 Mg2,0.0,-0.015852520000000002,0.930790802173817
mp-1094602,LiMg3,"[Element Li, Element Mg]",2,Li2 Mg6,0.0,-0.024017977916666003,1.537452651271512
mp-1094093,NbC,"[Element C, Element Nb]",2,Nb2 C2,0.0,-0.41998661229167306,7.623051487040355
mp-1094259,Hf3Mg,"[Element Hf, Element Mg]",2,Hf6 Mg2,0.0,0.10985452875000101,10.64938987825233
mp-1094457,SrMg2,"[Element Mg, Element Sr]",2,Sr2 Mg4,0.0,0.19631598333333203,2.242923400556746
mp-1094116,MgAl2,"[Element Al, Element Mg]",2,Mg4 Al8,0.0,-0.011892303333333002,2.36265275699615
mp-1094436,MgZn2,"[Element Mg, Element Zn]",2,Mg2 Zn4,0.0,0.023588876666666002,4.929908240892545
mp-1094582,LiMg2,"[Element Li, Element Mg]",2,Li2 Mg4,0.0,-0.017471555555555,1.425839225973478
mp-1094478,MgZn3,"[Element Mg, Element Zn]",2,Mg2 Zn6,0.0,-0.057860312499999005,5.895153209754373
mp-1094645,MgGa3,"[Element Ga, Element Mg]",2,Mg2 Ga6,0.0,-0.068472044374999,5.400916250997207
mp-1080667,AlCo3,"[Element Al, Element Co]",2,Al2 Co6,0.0,-0.178359348749998,7.428280633580205
mp-1094652,Mg3Ga,"[Element Ga, Element Mg]",2,Mg6 Ga2,0.0,-0.059117999374999,2.982882137879597
mp-1090,FeSe,"[Element Fe, Element Se]",2,Fe2 Se2,0.0,-0.31715429367187403,7.0951377019599
mp-1094023,V2C,"[Element C, Element V]",2,V4 C2,0.0,-0.237193746666667,5.427305449644111
mp-1094406,YMg2,"[Element Mg, Element Y]",2,Y2 Mg4,0.0,0.07273810333333301,2.842412105055102
mp-1094641,MgGa2,"[Element Ga, Element Mg]",2,Mg2 Ga4,0.0,-0.014575083333333001,4.592287933581272
mp-1094664,MgAl,"[Element Al, Element Mg]",2,Mg2 Al2,0.0,0.6173446,1.43668365370619
mp-1095545,ZrTc2,"[Element Tc, Element Zr]",2,Zr4 Tc8,0.0,-0.36226860000000205,9.340287565473758
mp-1095495,YZn2,"[Element Y, Element Zn]",2,Y4 Zn8,0.0,-0.36316034166666805,6.45667131303344
mp-1095013,MgGa,"[Element Ga, Element Mg]",2,Mg2 Ga2,0.0,0.296735011249999,2.803070966379607
mp-1095650,CsNa2,"[Element Cs, Element Na]",2,Cs4 Na8,0.0,0.013654156666665002,1.700243211524222
mp-1094978,HfMg,"[Element Hf, Element Mg]",2,Hf2 Mg2,0.0,1.626401712499999,5.434547644255128
mp-1094970,Mg3Al,"[Element Al, Element Mg]",2,Mg6 Al2,0.0,0.029916161250000003,2.022697092941516
mp-1094712,SrMg,"[Element Mg, Element Sr]",2,Sr2 Mg2,0.0,0.49464411083333104,1.667598004383185
mp-1095124,TaCo3,"[Element Co, Element Ta]",2,Ta2 Co6,0.0,-0.21286100100000002,12.723239404515997
mp-1095697,LaMg2,"[Element La, Element Mg]",2,La4 Mg8,0.0,-0.0784136475,3.674623220318876
mp-1096994,HfN,"[Element Hf, Element N]",2,Hf2 N2,0.0,-1.9617267118749981,13.87583067466445
mp-1095604,ErTc2,"[Element Er, Element Tc]",2,Er4 Tc8,0.0,-0.24928374861111002,11.189202142579461
mp-1101907,LuFe2,"[Element Fe, Element Lu]",2,Lu4 Fe8,0.0,-0.15132296222222202,10.402699093550934
mp-1094989,Ca3Mg,"[Element Ca, Element Mg]",2,Ca6 Mg2,0.0,0.000296642499999,1.630015785442613
mp-1095666,TbOs2,"[Element Os, Element Tb]",2,Tb4 Os8,0.0,-0.3687225975,16.59635468018038
mp-1095643,NbCr2,"[Element Cr, Element Nb]",2,Nb4 Cr8,0.0,0.1736947825,7.855336897067328
mp-1095682,Fe2Mo,"[Element Fe, Element Mo]",2,Fe8 Mo4,0.0,-0.0019008225,9.223223293357323
mp-1095689,SmMn2,"[Element Mn, Element Sm]",2,Sm4 Mn8,0.0,0.147737193879308,8.327083336335049
mp-1096993,HfC,"[Element C, Element Hf]",2,Hf2 C2,0.0,-0.925743942499998,12.565423483591927
mp-1101770,TmRu2,"[Element Ru, Element Tm]",2,Tm4 Ru8,0.0,-0.37800711666666803,11.67090751205987
mp-1101878,DyRu2,"[Element Dy, Element Ru]",2,Dy4 Ru8,0.0,-0.322637493055553,11.261730440183033
mp-1095669,HfTc2,"[Element Hf, Element Tc]",2,Hf4 Tc8,0.0,-0.40995929166666606,12.412301404863527
mp-1101860,ScTc2,"[Element Sc, Element Tc]",2,Sc4 Tc8,0.0,-0.30503423416666603,7.806821316854238
mp-1095057,VCo3,"[Element Co, Element V]",2,V2 Co6,0.0,0.019661535,8.995157058199814
mp-1096885,Cr3N2,"[Element Cr, Element N]",2,Cr6 N4,0.0,-0.217880355166664,6.118670733908543
mp-1095443,ScFe2,"[Element Fe, Element Sc]",2,Sc4 Fe8,0.0,-0.25505926833333104,5.933102884938467
mp-1094760,CeMg3,"[Element Ce, Element Mg]",2,Ce2 Mg6,0.0,4.4936249999238967e-05,3.346954128542015
mp-1094653,Mg2Ga,"[Element Ga, Element Mg]",2,Mg4 Ga2,0.0,-0.033247570833333004,3.125171331808763
mp-1095082,InRu3,"[Element In, Element Ru]",2,In2 Ru6,0.0,0.277810702083336,11.16420118680567
mp-1098702,CeSe2,"[Element Ce, Element Se]",2,Ce2 Se4,1.1233,-1.853317743229165,2.6270371630041893
mp-1098706,CeSe2,"[Element Ce, Element Se]",2,Ce2 Se4,0.15410000000000001,-1.657467953229165,5.270018809576993
mp-1096829,BPt,"[Element B, Element Pt]",2,B2 Pt2,0.0,0.039761654583333,14.38971917085515
mp-1101792,EuMg2,"[Element Eu, Element Mg]",2,Eu4 Mg8,0.0,-0.085892347500002,3.780883891447433
mp-1095482,YbOs2,"[Element Os, Element Yb]",2,Yb4 Os8,0.0,-0.46959937916666106,17.580536884678466
mp-1095487,LuTc2,"[Element Lu, Element Tc]",2,Lu4 Tc8,0.0,-0.30874724222222405,11.64945861992644
mp-1102043,LaOs2,"[Element La, Element Os]",2,La4 Os8,0.0,-0.064779052500001,14.942143171733758
mp-1101970,TbRu2,"[Element Ru, Element Tb]",2,Tb4 Ru8,0.0,-0.305337141388886,11.310456512283404
mp-1102111,PrRe2,"[Element Pr, Element Re]",2,Pr4 Re8,0.0,0.068405951666666,14.200214956347253
mp-1102316,TmOs2,"[Element Os, Element Tm]",2,Tm4 Os8,0.0,-0.44934463916666806,17.360540962904828
mp-1101994,EuRe2,"[Element Eu, Element Re]",2,Eu4 Re8,0.0,0.203961450833332,15.078373911131196
mp-1101922,EuFe2,"[Element Eu, Element Fe]",2,Eu4 Fe8,0.0,0.34370128583333204,7.827329105692476
mp-1102236,TmFe2,"[Element Fe, Element Tm]",2,Tm4 Fe8,0.0,-0.11629657083333501,10.028878386991996
mp-1102089,HoRu2,"[Element Ho, Element Ru]",2,Ho4 Ru8,0.0,-0.33953922583333,11.399889043006743
mp-1101953,HoOs2,"[Element Ho, Element Os]",2,Ho4 Os8,0.0,-0.41047410583333505,17.004988965758045
mp-1101941,TiOs2,"[Element Os, Element Ti]",2,Ti4 Os8,0.0,-0.279832483055557,14.908029623916677
mp-1102404,DyMn2,"[Element Dy, Element Mn]",2,Dy4 Mn8,0.0,0.071062937289272,9.525518574036566
mp-1102328,HoRe2,"[Element Ho, Element Re]",2,Ho4 Re8,0.0,-0.30499273583332803,16.130920376786758
mp-1102378,NdRe2,"[Element Nd, Element Re]",2,Nd4 Re8,0.0,-0.011074114999994,14.668864099281276
mp-1102209,GdRe2,"[Element Gd, Element Re]",2,Gd4 Re8,0.0,1.547103140833333,16.00861672654976
mp-1102182,LuMn2,"[Element Lu, Element Mn]",2,Lu4 Mn8,0.0,0.004934154157087,10.398655095143257
mp-1102210,DyRe2,"[Element Dy, Element Re]",2,Dy4 Re8,0.0,-0.27923740500000305,15.947509988734705
mp-1102035,SmRe2,"[Element Re, Element Sm]",2,Sm4 Re8,0.0,-0.113328665833336,15.106339730113628
mp-1102302,CeOs2,"[Element Ce, Element Os]",2,Ce4 Os8,0.0,-0.24643546333333302,15.733799643084856
mp-1102354,ThTc2,"[Element Tc, Element Th]",2,Th4 Tc8,0.0,-0.13598133583333,12.248124644165767
mp-1101985,TmRe2,"[Element Re, Element Tm]",2,Tm4 Re8,0.0,-0.28836453416667,16.223435336443217
mp-1102217,NdRu2,"[Element Nd, Element Ru]",2,Nd4 Ru8,0.0,-0.166429828333335,10.382944025729639
mp-1102249,TbRe2,"[Element Re, Element Tb]",2,Tb4 Re8,0.0,-0.250718444999999,15.735113695585062
mp-1102084,DyTc2,"[Element Dy, Element Tc]",2,Dy4 Tc8,0.0,-0.20419678500000202,10.890792768806548
mp-1102030,YTc2,"[Element Tc, Element Y]",2,Y4 Tc8,0.0,-0.17548198416666502,8.601140952860822
mp-1101983,NbCo2,"[Element Co, Element Nb]",2,Nb4 Co8,0.0,-0.126322126666667,9.105678166854403
mp-1101968,HoTc2,"[Element Ho, Element Tc]",2,Ho4 Tc8,0.0,-0.227511016666663,11.043875027404876