material_id,formula_pretty,elements,nelements,composition,band_gap,formation_energy_per_atom,density
mp-32967,Zr7Sb4,"[Element Sb, Element Zr]",2,Zr28 Sb16,0.0,-0.7650108845454501,7.529487006897481
mp-540622,RhF5,"[Element F, Element Rh]",2,Rh8 F40,0.0,-1.487063945416666,4.19244265527921
mp-32861,Rh3Se8,"[Element Rh, Element Se]",2,Rh6 Se16,0.0,-0.453348508409091,7.160472104359261
mp-415,IrN2,"[Element Ir, Element N]",2,Ir4 N8,0.32,0.16517825166666,12.990265390553414
mp-540625,GeSe2,"[Element Ge, Element Se]",2,Ge16 Se32,1.7063000000000001,-0.5793224153125001,4.115928916643514
mp-430,TiO2,"[Element O, Element Ti]",2,Ti4 O8,2.2317,-3.46857195111111,4.555389330254649
mp-504902,SiBr2,"[Element Br, Element Si]",2,Si20 Br40,2.743,-1.011604572333333,2.5230788456101
mp-33137,TcO2,"[Element O, Element Tc]",2,Tc4 O8,0.0,-1.883364699166667,6.739462012444188
mp-524,Ba3As14,"[Element As, Element Ba]",2,Ba6 As28,1.2631000000000001,-0.44724163764706004,4.884319645929317
mp-3346762,Na2O9,"[Element Na, Element O]",2,Na8 O36,0.0165,-0.39900221715909,1.773285917281684
mp-3346628,KO2,"[Element K, Element O]",2,K4 O8,0.1754,-0.994595256583333,2.336503315709114
mp-542810,AsS,"[Element As, Element S]",2,As16 S16,1.9674,-0.159580558906249,3.260272137661132
mp-540829,RuF5,"[Element F, Element Ru]",2,Ru8 F40,0.710199999999999,-1.872036438333334,4.061710740004784
mp-542604,AsS,"[Element As, Element S]",2,As16 S16,2.0999,-0.134849990781249,3.322298028131097
mp-542622,P4O7,"[Element O, Element P]",2,P16 O28,4.3719,-2.130709919415583,2.029230183335191
mp-540830,OsF5,"[Element F, Element Os]",2,Os8 F40,0.0,-1.8343220304166672,5.794978485787972
mp-541610,GeBr2,"[Element Br, Element Ge]",2,Ge8 Br16,2.597,-0.927984858749999,3.641964924077439
mp-540922,CrTe3,"[Element Cr, Element Te]",2,Cr8 Te24,0.1806,-0.45052173312499805,5.892773591859179
mp-540668,BS2,"[Element B, Element S]",2,B16 S32,2.5677,-0.7289695282638881,1.841349691563198
mp-542570,AsSe,"[Element As, Element Se]",2,As16 Se16,1.367999999999999,-0.11949234390624801,4.362593485155438
mp-540943,SeBr,"[Element Br, Element Se]",2,Se8 Br8,1.7553,-0.357321793046875,3.790186922918878
mp-541053,SiI2,"[Element I, Element Si]",2,Si20 I40,2.3855,-0.557895399999999,3.164823626149328
mp-542630,P4S9,"[Element P, Element S]",2,P16 S36,2.7085,-0.21866931593978903,1.927714130506903
mp-541341,PtF5,"[Element F, Element Pt]",2,Pt8 F40,0.0,-1.240684831458331,6.141623176055008
mp-554340,CrF2,"[Element Cr, Element F]",2,Cr2 F4,0.006399999999999,-2.822883553333335,3.8377484113488993
mp-542635,SeN,"[Element N, Element Se]",2,Se16 N16,1.8778000000000001,0.6339892010156251,3.505514812760458
mp-542738,SN,"[Element N, Element S]",2,S16 N16,2.3579,0.36996504281250003,1.840722903334794
mp-554799,VF4,"[Element F, Element V]",2,V2 F8,2.2417,-3.037462301,3.372005030603369
mp-556654,SiO2,"[Element O, Element Si]",2,Si24 O48,5.606999999999999,-3.260776771666666,2.08306252460832
mp-556425,SbF4,"[Element F, Element Sb]",2,Sb16 F64,3.4513,-2.658436449250035,4.2920002387641905
mp-559771,Pr6O11,"[Element O, Element Pr]",2,Pr24 O44,0.0,-3.236619709558822,6.068214858124068
mp-558149,BF3,"[Element B, Element F]",2,B8 F24,8.1417,-2.92626727125,2.15909357418515
mp-556328,AsS,"[Element As, Element S]",2,As16 S16,2.101099999999999,-0.13486261609375,3.292528400949541
mp-558953,Bi2O3,"[Element Bi, Element O]",2,Bi8 O12,0.0,-1.041696538500001,8.694304086575459
mp-559140,MoO2,"[Element Mo, Element O]",2,Mo4 O8,0.0,-1.827539415,6.459388041224379
mp-555096,PrS2,"[Element Pr, Element S]",2,Pr4 S8,0.34629999999999905,-2.010772799930554,5.010890687055613
mp-562001,Cs11O3,"[Element Cs, Element O]",2,Cs44 O12,0.0,-0.7818787620504931,2.512526068644122
mp-561153,XeF3,"[Element F, Element Xe]",2,Xe4 F12,2.6269,-0.835122395625,4.212742090005931
mp-561397,SO3,"[Element O, Element S]",2,S4 O12,5.1612,-1.580818240208334,2.493169750552031
mp-560366,XeF6,"[Element F, Element Xe]",2,Xe16 F96,2.793199999999999,-0.7935726327678571,3.384029819926771
mp-556882,SiO2,"[Element O, Element Si]",2,Si16 O32,5.6423,-3.262027181458334,2.6006450554793012
mp-558247,Mo4O11,"[Element Mo, Element O]",2,Mo16 O44,0.035299999999999006,-1.940046706333333,3.82869596379386
mp-559956,Pr5O9,"[Element O, Element Pr]",2,Pr40 O72,0.0,-3.254284596845239,6.069278837727018
mp-567604,GeBr4,"[Element Br, Element Ge]",2,Ge4 Br16,2.9329,-1.061006728000001,3.503015322656526
mp-568593,Pd34Se11,"[Element Pd, Element Se]",2,Pd68 Se22,0.0,-0.185382848314045,10.052456420418235
mp-562412,Ag3F8,"[Element Ag, Element F]",2,Ag6 F16,0.306899999999999,-1.19802818272727,5.367513968524786
mp-568024,ICl,"[Element Cl, Element I]",2,I8 Cl8,1.4968,-0.45865276749999806,3.721820123202364
mp-570421,Sm2B5,"[Element B, Element Sm]",2,Sm8 B20,0.0,-0.622048077857144,6.375971781011579
mp-567201,PrCu6,"[Element Cu, Element Pr]",2,Pr4 Cu24,0.0,-0.11435060523809501,8.48025500582328
mp-568080,CeP2,"[Element Ce, Element P]",2,Ce4 P8,0.0,-1.194350468650791,5.136177863086828
mp-569224,SbI3,"[Element I, Element Sb]",2,Sb4 I12,2.2057,-0.615905174374998,4.589649490465006
mp-568483,NbCl5,"[Element Cl, Element Nb]",2,Nb4 Cl20,2.2907,-1.370136585833335,2.6206061476734863
mp-568862,OsN2,"[Element N, Element Os]",2,Os4 N8,0.0,0.285417177499998,12.959220736274968
mp-567617,RhN2,"[Element N, Element Rh]",2,Rh4 N8,0.0,0.12281575416666302,7.647568064774014
mp-567998,ICl,"[Element Cl, Element I]",2,I8 Cl8,1.852199999999999,-0.46454095499999903,3.599104829594085
mp-570205,PrSe2,"[Element Pr, Element Se]",2,Pr4 Se8,0.0,-1.890629875763887,6.452263488763646
mp-567789,InI3,"[Element I, Element In]",2,In4 I12,2.2833,-0.7810132685416661,4.39154900218926
mp-569655,BN,"[Element B, Element N]",2,B4 N4,3.847899999999999,-1.091811370624999,1.854587397085946
mp-569405,B3H5,"[Element B, Element H]",2,B36 H60,3.7409,-0.074125438276517,0.811598955496431
mp-581212,Cu2S,"[Element Cu, Element S]",2,Cu96 S48,0.34750000000000003,-0.19943631746527501,5.87141141186352
mp-570900,K4Sn9,"[Element K, Element Sn]",2,K16 Sn36,1.2502,-0.21640063184615202,3.986222084985664
mp-570539,Rb3As7,"[Element As, Element Rb]",2,Rb24 As56,1.6278000000000001,-0.35363240962500103,3.603059616268136
mp-571011,CsI4,"[Element Cs, Element I]",2,Cs4 I16,1.7836,-0.9757700474310381,4.331436718846286
mp-570796,SbCl5,"[Element Cl, Element Sb]",2,Sb8 Cl40,1.537399999999999,-0.7330447383333331,2.813941454748994
mp-571264,Ca5Au4,"[Element Au, Element Ca]",2,Ca10 Au8,0.0,-0.800555118333335,6.938252567919399
mp-570707,NdSe2,"[Element Nd, Element Se]",2,Nd4 Se8,0.0,-1.887452508541666,6.6509806128765785
mp-573425,Y8Co5,"[Element Co, Element Y]",2,Y32 Co20,0.0,-0.13563604538461502,5.599887787725599
mp-570668,LaSe2,"[Element La, Element Se]",2,La4 Se8,0.23869999999999902,-2.025149987708332,6.245570498278901
mp-572892,GeS2,"[Element Ge, Element S]",2,Ge16 S32,2.2646,-0.6633624314583321,2.768684046510788
mp-570989,UCl5,"[Element Cl, Element U]",2,U4 Cl20,0.0,-1.8506782829166681,3.5617649322084572
mp-573622,Dy12Co7,"[Element Co, Element Dy]",2,Dy24 Co14,0.0,-0.16023249263157402,9.2963913918015
mp-571540,ZnCl2,"[Element Cl, Element Zn]",2,Zn12 Cl24,4.326,-1.289770749722222,2.962937614313809
mp-574086,SiBr4,"[Element Br, Element Si]",2,Si4 Br16,4.1127,-1.260897489999997,3.155623529353564
mp-573495,ICl,"[Element Cl, Element I]",2,I8 Cl8,1.1833,-0.363403541249999,2.667176609685167
mp-572670,B2S3,"[Element B, Element S]",2,B16 S24,2.4867,-0.7280437499166651,1.848467686723867
mp-574070,Cs4Pb9,"[Element Cs, Element Pb]",2,Cs16 Pb36,0.9064999999999991,-0.18767810431697401,6.687262087104349
mp-636675,Ga2I3,"[Element Ga, Element I]",2,Ga8 I12,2.2709,-0.6586228404999981,4.370491340830161
mp-634117,BH3,"[Element B, Element H]",2,B4 H12,5.3252,-0.0449355434375,0.6245518580087981
mp-581942,CeCu6,"[Element Ce, Element Cu]",2,Ce4 Cu24,0.0,-0.106328285357142,8.542747544520381
mp-618,Pd7Se2,"[Element Pd, Element Se]",2,Pd14 Se4,0.0,-0.16757863812499801,10.504085539511214
mp-610430,BiBr3,"[Element Bi, Element Br]",2,Bi4 Br12,2.5189,-1.110768668750001,5.080780411489115
mp-583714,Pr5O9,"[Element O, Element Pr]",2,Pr40 O72,2.824099999999999,-3.217433275416667,6.083147493566386
mp-610517,Ag2S,"[Element Ag, Element S]",2,Ag8 S4,1.000699999999999,-0.089347979270833,6.674811817819036
mp-619071,PbCl2,"[Element Cl, Element Pb]",2,Pb8 Cl16,3.050499999999999,-1.285676907500004,5.53289766944794
mp-619461,WO3,"[Element O, Element W]",2,W8 O24,1.3708,-2.183760965624999,6.702580391540673
mp-628742,Cs5Sb8,"[Element Cs, Element Sb]",2,Cs20 Sb32,0.5845,-0.486485566153847,4.558755357346451
mp-603334,HC2,"[Element C, Element H]",2,H24 C48,2.4998,0.000883881597219,1.3417257399898062
mp-619575,ClF3,"[Element Cl, Element F]",2,Cl8 F24,2.5175,-0.6182932559375001,2.497464466586691
mp-636839,HgN3,"[Element Hg, Element N]",2,Hg4 N12,2.1595,0.565199767500001,5.777442037759045
mp-636148,WO3,"[Element O, Element W]",2,W4 O12,1.905499999999999,-2.160191838125,6.656324543893231
mp-630528,InS,"[Element In, Element S]",2,In4 S4,0.4359,-0.65551911890625,5.182510055816747
mp-641,As2S3,"[Element As, Element S]",2,As8 S12,2.0989,-0.156448726187498,3.195248938424692
mp-637209,AsN9,"[Element As, Element N]",2,As4 N36,3.1971,0.6450778624999991,2.255418485732576
mp-685128,Fe7S8,"[Element Fe, Element S]",2,Fe14 S16,0.0,-0.608776399333332,5.488672397774192
mp-680550,ZnP2,"[Element P, Element Zn]",2,Zn8 P16,0.0,-0.125619528234126,3.451463640817425
mp-651155,TeI4,"[Element I, Element Te]",2,Te16 I64,1.7649,-0.42268351883333205,4.429599120248874
mp-669426,SiO2,"[Element O, Element Si]",2,Si8 O16,5.537999999999999,-3.26570421,2.355588157477184
mp-687150,UO4,"[Element O, Element U]",2,U2 O8,0.0,-2.519653595999997,6.134008285870976
mp-7262,ZnAs2,"[Element As, Element Zn]",2,Zn8 As16,0.22409999999999902,-0.148990749583333,5.121352392989239
mp-720515,HN,"[Element H, Element N]",2,H20 N20,4.362999999999999,-0.08476796291666501,1.364026480254457
mp-647589,La6Ge11,"[Element Ge, Element La]",2,La24 Ge44,0.0,-0.8095890938235301,6.580400276806299
mp-669547,Re2Si,"[Element Re, Element Si]",2,Re16 Si8,0.0,0.135191012499999,15.197383344245065
mp-706937,B9H11,"[Element B, Element H]",2,B72 H88,3.344299999999999,-0.0954718813125,0.9618888821969521
mp-706664,B10H13,"[Element B, Element H]",2,B80 H104,3.41,-0.091312795692935,0.9297493518374521
mp-757854,VF5,"[Element F, Element V]",2,V4 F20,3.198199999999999,-2.757164172083333,2.839074049082596
mp-727952,I3O8,"[Element I, Element O]",2,I12 O32,0.0,-0.622583312045455,4.835110125838481
mp-726866,NO2,"[Element N, Element O]",2,N4 O8,1.0218,1.748519188333333,1.227065101760407
mp-726415,BaO2,"[Element Ba, Element O]",2,Ba8 O16,2.687599999999999,-2.10028971541667,5.206439760809411
mp-755211,CrO3,"[Element Cr, Element O]",2,Cr4 O12,1.9140000000000001,-1.47971232,2.221975319861144
mp-752602,BiBr3,"[Element Bi, Element Br]",2,Bi4 Br12,2.8714,-1.17217281125,4.921190383459687
mp-755,CoSb2,"[Element Co, Element Sb]",2,Co4 Sb8,0.0,-0.100823533333335,8.352510478830764
mp-755066,Al2O3,"[Element Al, Element O]",2,Al8 O12,4.2469,-3.337622148,3.561892587487244
mp-731362,WO5,"[Element O, Element W]",2,W4 O20,0.321399999999999,-0.665544314166666,4.408334619688763
mp-726666,PO4,"[Element O, Element P]",2,P4 O16,0.49700000000000005,-1.325146314428571,1.6608621476230092
mp-753265,VF5,"[Element F, Element V]",2,V4 F20,3.290499999999999,-2.8094643662500003,2.348234982150297
mp-736227,CN,"[Element C, Element N]",2,C16 N16,0.1962,1.14262593375,0.905516778007009
mp-755459,Rb2O,"[Element O, Element Rb]",2,Rb4 O2,0.30669999999999903,-1.115082109999999,3.343797460654141
mp-728122,U3O10,"[Element O, Element U]",2,U12 O40,0.0,-3.144504686153845,6.858915243950792
mp-755040,Cu2O3,"[Element Cu, Element O]",2,Cu8 O12,0.0,-0.787026701,4.314136874571602
mp-734250,KO2,"[Element K, Element O]",2,K4 O8,0.0082,-0.9047666399166651,2.085648292808331
mp-759987,Mn2F7,"[Element F, Element Mn]",2,Mn8 F28,0.46220000000000006,-2.496196599818008,3.108787500852994
mp-734582,CS3,"[Element C, Element S]",2,C16 S48,0.168999999999999,0.658470432633928,1.5714089344378852
mp-755820,NdO2,"[Element Nd, Element O]",2,Nd4 O8,0.0,-2.981321933333332,5.885700230737752
mp-753449,VF5,"[Element F, Element V]",2,V4 F20,3.1985,-2.827865787916666,2.7229339678105173
mp-753574,MnF4,"[Element F, Element Mn]",2,Mn2 F8,0.19660000000000002,-2.335792726086208,3.775612232324731
mp-754531,Al2O3,"[Element Al, Element O]",2,Al8 O12,4.369999999999999,-3.319276747500002,3.2285435636381212
mp-755928,Cu2O3,"[Element Cu, Element O]",2,Cu8 O12,0.0,-0.4589598535,5.318814566260697
mp-769096,MnP4,"[Element Mn, Element P]",2,Mn6 P24,0.0,-0.306579858967159,3.9760976517458193
mp-7943,LiAs,"[Element As, Element Li]",2,Li8 As8,0.3285,-0.588209097083334,3.784026537081356
mp-776343,WN2,"[Element N, Element W]",2,W12 N24,1.525,-0.27670568437500204,6.07590754883586
mp-778252,V5O12,"[Element O, Element V]",2,V20 O48,1.0797,-2.320203241176472,2.846577582122214
mp-760320,VF5,"[Element F, Element V]",2,V8 F40,2.9955,-2.82816124,2.656055670198546
mp-765600,VF5,"[Element F, Element V]",2,V4 F20,3.1532,-2.8270491325,2.653091886251577
mp-760030,V5F11,"[Element F, Element V]",2,V20 F44,0.6265000000000001,-2.996647880156247,3.091706187089862
mp-776688,V2O3,"[Element O, Element V]",2,V8 O12,1.433199999999999,-2.439165585499999,4.20665056757022
mp-760250,VF5,"[Element F, Element V]",2,V8 F40,3.0136,-2.834136573333333,2.776373484831187
mp-7904,CdP4,"[Element Cd, Element P]",2,Cd2 P8,0.6551,-0.120742532380951,3.7990978568765783
mp-845,Cu5Sn4,"[Element Cu, Element Sn]",2,Cu20 Sn16,0.0,0.024354069444443002,8.36384589908376
mp-776041,V2O5,"[Element O, Element V]",2,V8 O20,2.1703,-2.254847387142857,2.7070780965019052
mp-825726,WO3,"[Element O, Element W]",2,W8 O24,1.6296,-2.181464283125,7.147586431367632
mp-769108,NiP4,"[Element Ni, Element P]",2,Ni6 P24,0.0,-0.17240725228571302,3.9424532623804573
mp-7944,NaSb,"[Element Na, Element Sb]",2,Na8 Sb8,0.6041000000000001,-0.448723322499999,4.030017785940886
mp-760312,VF5,"[Element F, Element V]",2,V8 F40,3.0203,-2.8355545543750003,2.565816439669657
mp-765624,VF5,"[Element F, Element V]",2,V4 F20,3.3213,-2.807246419166667,2.346197094082147
mp-7715,AgF2,"[Element Ag, Element F]",2,Ag2 F4,0.0,-1.277155026666665,5.487610104183603
mp-771699,Sb2O5,"[Element O, Element Sb]",2,Sb8 O20,1.1811,-1.6689724225,5.2977279305663
mp-775,Er5Si4,"[Element Er, Element Si]",2,Er20 Si16,0.0,-0.814710759907411,7.743532793911429
mp-8200,AgP2,"[Element Ag, Element P]",2,Ag4 P8,0.6586999999999991,-0.038252180317459,4.98170620894439
mp-974434,RuF4,"[Element F, Element Ru]",2,Ru2 F8,0.18130000000000002,-1.8842842629999992,4.635184231260965
mp-850131,NiS2,"[Element Ni, Element S]",2,Ni2 S4,0.0,-0.569828999999999,4.323290135292187
mp-9588,LiP,"[Element Li, Element P]",2,Li8 P8,0.8094999999999991,-0.616667199821428,2.026625484183503
mp-863400,VF4,"[Element F, Element V]",2,V4 F16,1.9213,-3.003775520999999,3.323000240324309
mp-909,As2Se3,"[Element As, Element Se]",2,As8 Se12,1.4466,-0.139482853937499,4.573186524611719
mp-850937,VF4,"[Element F, Element V]",2,V4 F16,1.7009,-3.0211002075,3.437670564964533
mp-9530,Y4C7,"[Element C, Element Y]",2,Y8 C14,0.0,-0.258570687045455,4.587491682987337
mp-927,CuP2,"[Element Cu, Element P]",2,Cu4 P8,0.8679000000000001,-0.156310461150794,4.365565051390864
mp-995198,CO2,"[Element C, Element O]",2,C4 O8,4.2235,-1.450126463333333,1.9370604086528962
mp-978114,Sn5O6,"[Element O, Element Sn]",2,Sn10 O12,1.7702,-1.762198781818187,5.830138071308603
mp-985570,SiO2,"[Element O, Element Si]",2,Si8 O16,5.7565,-3.264350820416666,2.3577983813543613
mp-1080448,AlPt3,"[Element Al, Element Pt]",2,Al2 Pt6,0.0,-0.750710777499989,16.826103594812515
mp-1071504,Ti2B,"[Element B, Element Ti]",2,Ti4 B2,0.0,0.130343930833333,4.578122083555732
mp-1052023,Mg2Cu,"[Element Cu, Element Mg]",2,Mg4 Cu2,0.0,-0.07827812166666501,3.50801250552495
mp-1078656,K3Mn,"[Element K, Element Mn]",2,K6 Mn2,0.0,0.6517699132672411,1.355273977531128
mp-1105651,Ca5Pt3,"[Element Ca, Element Pt]",2,Ca10 Pt6,0.0,-0.8434861118749981,6.701923465739916
mp-1077297,Zr2Ir,"[Element Ir, Element Zr]",2,Zr4 Ir2,0.0,-0.7615805800000001,10.16094734937015
mp-1025039,PbS2,"[Element Pb, Element S]",2,Pb2 S4,0.083,-0.6219328300000001,6.308631364822357
mp-1098707,CeSe2,"[Element Ce, Element Se]",2,Ce8 Se16,1.0112,-1.390502079062499,1.886960896995809
mp-1025149,Ti2B,"[Element B, Element Ti]",2,Ti4 B2,0.0,-0.42470808083333306,4.6669677421906
mp-1077157,IrC2,"[Element C, Element Ir]",2,Ir2 C4,0.0,1.416549503333333,13.13516491934383
mp-1076974,Th2Tl,"[Element Th, Element Tl]",2,Th4 Tl2,0.0,-0.172075644999997,11.811092870735646
mp-1080172,TiN2,"[Element N, Element Ti]",2,Ti2 N4,0.0,-1.019226798472222,5.007427939726197
mp-1097011,IN2,"[Element I, Element N]",2,I2 N4,0.0,-0.20876613500000002,3.447920921263097
mp-1072181,FeSb2,"[Element Fe, Element Sb]",2,Fe2 Sb4,0.0,0.035447016666667004,8.24455297765753
mp-1080860,CeSe2,"[Element Ce, Element Se]",2,Ce16 Se32,0.963299999999999,-1.393101016770831,1.834101403571773
mp-1072256,Hf2Ge,"[Element Ge, Element Hf]",2,Hf4 Ge2,0.0,-0.093563735000003,11.201140187236055
mp-1079083,SiPd,"[Element Pd, Element Si]",2,Si4 Pd4,0.0,-0.37681097458333,5.589185732095392
mp-1105464,Pu6Fe,"[Element Fe, Element Pu]",2,Pu12 Fe2,0.0,0.48743850178572606,17.12119293353965
mp-1094140,MnGe2,"[Element Ge, Element Mn]",2,Mn2 Ge4,0.0,-0.034347787643678004,7.400614544527722
mp-1080631,CeSe2,"[Element Ce, Element Se]",2,Ce16 Se32,0.9838,-1.4122226323958311,1.7398414017137722
mp-1100783,Sr2Mg,"[Element Mg, Element Sr]",2,Sr4 Mg2,0.0,0.015269926666666002,2.46725310358956
mp-1095094,SnI3,"[Element I, Element Sn]",2,Sn2 I6,0.0,-0.558575128749999,4.061216811885222
mp-1032,Ta2B,"[Element B, Element Ta]",2,Ta4 B2,0.0,-0.56823540072222,15.146605349483425
mp-1095578,Ga5Ni,"[Element Ga, Element Ni]",2,Ga10 Ni2,0.0,-0.15553331916666702,7.159019774039257
mp-1101251,Tl2Pt,"[Element Pt, Element Tl]",2,Tl4 Pt2,0.0,-0.037054912037045,13.087706863329213
mp-1034,Th2Cu,"[Element Cu, Element Th]",2,Th4 Cu2,0.0,-0.09556743166666501,11.418119465737002
mp-1072518,In2Cu,"[Element Cu, Element In]",2,In4 Cu2,0.0,0.11441033792857001,7.391910912802436
mp-1105020,Pu6Co,"[Element Co, Element Pu]",2,Pu12 Co2,0.0,0.54342866758928,17.494523890480753
mp-1105285,V5Ge3,"[Element Ge, Element V]",2,V10 Ge6,0.0,-0.370239305624999,7.054497746584059
mp-10961,La5Si3,"[Element La, Element Si]",2,La10 Si6,0.0,-0.6790210318749991,5.727501360829827
mp-1105755,Nd5Tl3,"[Element Nd, Element Tl]",2,Nd10 Tl6,0.0,-0.31551774468750104,8.77666519104843
mp-1105942,Sm5Ga3,"[Element Ga, Element Sm]",2,Sm10 Ga6,0.0,-0.5485294981249991,7.337371464522009
mp-11278,Ta2Be,"[Element Be, Element Ta]",2,Ta4 Be2,0.0,-0.15419187822222202,13.872037325446222
mp-1106252,Nd5Ga3,"[Element Ga, Element Nd]",2,Nd10 Ga6,0.0,-0.5300806946874981,6.842575415692497
mp-1105771,Tb5Tl3,"[Element Tb, Element Tl]",2,Tb10 Tl6,0.0,-0.27568906604166804,9.795452816585204
mp-1188153,Ti5Ga3,"[Element Ga, Element Ti]",2,Ti10 Ga6,0.0,-0.42565715802083304,5.6716802112475495
mp-1188207,Zr3W5,"[Element W, Element Zr]",2,Zr6 W10,0.0,0.44791075843749406,13.120648256923621
mp-1188350,Yb5Sn3,"[Element Sn, Element Yb]",2,Yb10 Sn6,0.0,-0.7201032175000031,9.465434495543127
mp-1188565,In5Sb3,"[Element In, Element Sb]",2,In10 Sb6,0.0,-0.057369974374996004,6.850589438270663
mp-1188446,Sm5Tl3,"[Element Sm, Element Tl]",2,Sm10 Tl6,0.0,-0.31325368937500303,9.272963078756947
mp-1186834,Rb2Mg,"[Element Mg, Element Rb]",2,Rb4 Mg2,0.0,0.178601691666666,1.808686455546772
mp-1188215,Nb5Ge3,"[Element Ge, Element Nb]",2,Nb10 Ge6,0.0,-0.47997818875000103,8.294600189831986
mp-1188342,Tb5Ga3,"[Element Ga, Element Tb]",2,Tb10 Ga6,0.0,-0.5876191925,8.065608455314297
mp-1185791,Mg2Ni,"[Element Mg, Element Ni]",2,Mg4 Ni2,0.0,-0.15112408111111,3.54458602368237
mp-1188102,V5Si3,"[Element Si, Element V]",2,V10 Si6,0.0,-0.5764568306250001,5.399812874778428
mp-1105805,Pr5Ga3,"[Element Ga, Element Pr]",2,Pr10 Ga6,0.0,-0.509488945416663,6.721929275834319