material_id,formula_pretty,elements,nelements,composition,band_gap,formation_energy_per_atom,density
mp-964,Cr3S4,"[Element Cr, Element S]",2,Cr6 S8,0.0,-0.945570032857142,3.899736234008015
mp-978260,Mg2Bi,"[Element Bi, Element Mg]",2,Mg4 Bi2,0.0,-0.039837853333334006,5.445278343239143
mp-995184,HC2,"[Element C, Element H]",2,H2 C4,0.0,0.042711323541664,1.430257896407338
mp-867971,Mn15O32,"[Element Mn, Element O]",2,Mn15 O32,0.0,-1.6275866657226712,3.961701768714472
mp-886,Ga2O3,"[Element Ga, Element O]",2,Ga4 O6,2.007799999999999,-2.268996668999999,5.887587999533202
mp-971673,BiS2,"[Element Bi, Element S]",2,Bi4 S8,1.066599999999999,-0.32704707937500105,6.082212582499074
mp-980663,Yb2Mg,"[Element Mg, Element Yb]",2,Yb4 Mg2,0.0,-0.018552606666669,7.398595665349141
mp-9254,Al2Te5,"[Element Al, Element Te]",2,Al2 Te5,1.046099999999999,-0.40193999714285505,4.782126199336237
mp-976843,Li2Mg,"[Element Li, Element Mg]",2,Li4 Mg2,0.0,-0.031753756111111,1.045837329329422
mp-9923,VP2,"[Element P, Element V]",2,V2 P4,0.0,-0.63263322531746,4.584394690442164
mp-998914,K2O,"[Element K, Element O]",2,K4 O2,0.8801,-1.192727934833332,2.149151487134136
mp-973455,LiMg2,"[Element Li, Element Mg]",2,Li2 Mg4,0.0,-0.045103938888888,1.485496552120324
mp-976262,LiMg,"[Element Li, Element Mg]",2,Li3 Mg3,0.0,-0.041007314166667,1.273734740890411
mp-917,CaC2,"[Element C, Element Ca]",2,Ca2 C4,2.3396,-0.137819261666666,2.189236157490237
mp-9548,GeAs,"[Element As, Element Ge]",2,Ge6 As6,0.5112999999999991,-0.060294584583334004,4.9614870568336435
mp-995197,HC,"[Element C, Element H]",2,H8 C8,3.5572,-0.049922765312500006,1.161985865291602
mp-9305,Mn4As3,"[Element As, Element Mn]",2,Mn8 As6,0.0,-0.17248020274630702,7.034708194041056
mp-980949,WCl4,"[Element Cl, Element W]",2,W2 Cl8,0.264999999999999,-0.939381027000001,4.375873913517119
mp-981252,YMg5,"[Element Mg, Element Y]",2,Y1 Mg5,0.0,0.014211334166667,2.384403169337762
mp-975,SF6,"[Element F, Element S]",2,S3 F18,5.9124,-1.853382890877975,2.8028887884988443
mp-9907,SrAs3,"[Element As, Element Sr]",2,Sr2 As6,0.0,-0.720469139375001,5.081616982497236
mp-1205436,Fe3C,"[Element C, Element Fe]",2,Fe12 C4,0.0,0.160689515625,7.989593513652556
mp-2745918,CuI4,"[Element Cu, Element I]",2,Cu1 I4,0.0,0.041182183999998005,5.30424869846756
mp-30412,Pb3Au,"[Element Au, Element Pb]",2,Pb12 Au4,0.0,-0.06182607312499701,12.325380929478587
mp-1080256,CeSe2,"[Element Ce, Element Se]",2,Ce8 Se16,0.9770000000000001,-1.401606064479165,2.377327352587622
mp-1180520,LiS,"[Element Li, Element S]",2,Li4 S4,0.4295,-0.9732557729166661,1.624024698020643
mp-757852,Bi16O25,"[Element Bi, Element O]",2,Bi16 O25,0.0,-1.572877674512197,8.92652396581477
mp-30748,Zr3Ir,"[Element Ir, Element Zr]",2,Zr12 Ir4,0.0,-0.5994195562500011,9.29710152354993
mp-33107,SF4,"[Element F, Element S]",2,S1 F4,1.192899999999999,-1.2907437397361101,2.050623639915413
mp-32829,CuCl4,"[Element Cl, Element Cu]",2,Cu1 Cl4,0.0,-0.31046379699999804,2.752248397423521
mp-33218,CuI4,"[Element Cu, Element I]",2,Cu1 I4,0.0,-0.16940907000000002,5.364724317171609
mp-557930,SiO2,"[Element O, Element Si]",2,Si8 O16,5.8743,-3.24084198125,2.311617456409678
mp-27962,CI4,"[Element C, Element I]",2,C1 I4,1.1181,0.229454606999999,3.925783222986315
mp-1215747,Yb4S7,"[Element S, Element Yb]",2,Yb4 S7,0.0,-2.077633222698864,6.9731135495258005
mp-1180489,LiN,"[Element Li, Element N]",2,Li4 N4,0.0,0.9612698310416651,1.351976984668744
mp-10004,Mo3P,"[Element Mo, Element P]",2,Mo12 P4,0.0,-0.34859220199405105,9.144741152243927
mp-1524458,OsO4,"[Element O, Element Os]",2,Os1 O4,3.1633,-1.529192906999997,5.167419837289786
mp-7945,V3S,"[Element S, Element V]",2,V12 S4,0.0,-0.6585790784374981,6.122752172541642
mp-1188413,Zr3Rh,"[Element Rh, Element Zr]",2,Zr12 Rh4,0.0,-0.454694031249999,7.559883230895028
mp-560131,SiO2,"[Element O, Element Si]",2,Si8 O16,5.7724,-3.175410817083333,1.851093610886656
mp-582055,La7Ni16,"[Element La, Element Ni]",2,La7 Ni16,0.0,-0.34516971499999904,8.374149599911052
mp-1209828,PW3,"[Element P, Element W]",2,P4 W12,0.0,-0.12412992886905201,16.292981251791442
mp-1223154,La4S7,"[Element La, Element S]",2,La4 S7,0.0,-2.2285731159375,4.833393404253677
mp-2740066,Co23O32,"[Element Co, Element O]",2,Co23 O32,0.0,-1.332651985636364,6.004672964463483
mp-1042075,SbS2,"[Element S, Element Sb]",2,Sb2 S4,0.0,0.019165615572916,2.898257101992902
mp-1042098,TiS2,"[Element S, Element Ti]",2,Ti2 S4,1.638199999999999,-1.38024083111111,2.1790145282785502
mp-1042127,BiS2,"[Element Bi, Element S]",2,Bi2 S4,0.0,0.096299124843743,4.023816010342321
mp-1042115,NiS2,"[Element Ni, Element S]",2,Ni2 S4,0.0,-0.211133334999999,3.502689883856152
mp-1101173,WN2,"[Element N, Element W]",2,W2 N4,0.8721999999999991,-0.37374543270833704,4.818044096286074
mp-1188205,Rb2O3,"[Element O, Element Rb]",2,Rb8 O12,0.0,-1.009550132,3.48133748492001
mp-10074,GeSe2,"[Element Ge, Element Se]",2,Ge2 Se4,1.5188000000000001,-0.5668286598958321,4.539852887448027
mp-1002063,SnS2,"[Element S, Element Sn]",2,Sn2 S4,1.8354,-0.397310885208331,3.520251332150652
mp-1173507,Np2Te3,"[Element Np, Element Te]",2,Np16 Te24,0.0,-0.560313614,9.473167085191916
mp-1042100,WS2,"[Element S, Element W]",2,W2 S4,0.0,-0.130636825208332,5.694723998552027
mp-1102681,CN2,"[Element C, Element N]",2,C4 N8,3.6068,0.569716239166665,3.692644072480023
mp-1202035,Ni9S8,"[Element Ni, Element S]",2,Ni36 S32,0.0,-0.508689904705881,5.163521011747226
mp-1042106,CoS2,"[Element Co, Element S]",2,Co2 S4,0.0,-0.13739161187499901,3.252428335131963
mp-1080260,CeSe2,"[Element Ce, Element Se]",2,Ce2 Se4,0.4827,-1.409579333229165,3.884983426563981
mp-1042111,CrS2,"[Element Cr, Element S]",2,Cr2 S4,0.0,-0.6814104283333311,2.670905158624001
mp-1042086,MoS2,"[Element Mo, Element S]",2,Mo2 S4,0.041800000000000004,-0.31864154854166504,3.271134546853978
mp-1077316,CO2,"[Element C, Element O]",2,C2 O4,7.654599999999999,-1.319133506666666,3.10885025110387
mp-1080332,CeSe2,"[Element Ce, Element Se]",2,Ce2 Se4,0.966299999999999,-1.393329871562498,2.5047301655694243
mp-1443423,VS2,"[Element S, Element V]",2,V2 S4,0.0,-0.9380918049999991,2.607793025440729
mp-1759,UF5,"[Element F, Element U]",2,U4 F20,0.0,-3.7037346312500032,6.164120739668032
mp-32578,Ce2Se3,"[Element Ce, Element Se]",2,Ce16 Se24,0.0,-2.100741785156247,6.4992462070437025
mp-1227413,Bi2Te,"[Element Bi, Element Te]",2,Bi4 Te2,0.0,-0.032570739444433006,8.883337166117965
mp-1383615,FeS2,"[Element Fe, Element S]",2,Fe2 S4,0.0,-0.482783109999998,3.009686400745283
mp-22909,ZnCl2,"[Element Cl, Element Zn]",2,Zn2 Cl4,4.0533,-1.291011926666667,2.926450984350554
mp-32581,Pr2Te3,"[Element Pr, Element Te]",2,Pr16 Te24,0.9258999999999991,-1.716815145666669,6.610114466259504
mp-15514,NaSe2,"[Element Na, Element Se]",2,Na8 Se16,1.1815,-0.6857838314583321,3.775833329419609
mp-1203373,Ge22Rh17,"[Element Ge, Element Rh]",2,Ge44 Rh34,0.0,-0.47860255499999804,8.91255640996474
mp-12180,NaS2,"[Element Na, Element S]",2,Na8 S16,2.0185,-0.705851476458332,2.162325110475751
mp-1232184,Pm2Se3,"[Element Pm, Element Se]",2,Pm16 Se24,1.619199999999999,-2.190929577687498,6.678837130878813
mp-1394093,Cu2S,"[Element Cu, Element S]",2,Cu4 S2,0.0,-0.084396866354166,6.235688438267789
mp-32606,Ba3P2,"[Element Ba, Element P]",2,Ba24 P16,0.250799999999999,-0.981139580857144,4.335496485901339
mp-1760,UF5,"[Element F, Element U]",2,U4 F20,0.0942,-3.730788408750003,5.393770713176171
mp-2039388,Np3Se4,"[Element Np, Element Se]",2,Np6 Se8,0.0,-1.89362666107142,9.740265246715449
mp-32594,Sm2Se3,"[Element Se, Element Sm]",2,Sm16 Se24,1.5046,-2.173472364187501,6.904818213499398
mp-1397283,MnS2,"[Element Mn, Element S]",2,Mn2 S4,0.0,-0.49101037170258605,2.8051565656160102
mp-32586,Nd2S3,"[Element Nd, Element S]",2,Nd16 S24,1.835999999999999,-2.3570386306875,5.369768259023699
mp-32629,Ce2S3,"[Element Ce, Element S]",2,Ce16 S24,0.0,-2.375489674937498,5.386276471354912
mp-32642,Lu2S3,"[Element Lu, Element S]",2,Lu16 S24,2.0514,-2.290768049854165,7.246584967244535
mp-542044,Zr11Sb18,"[Element Sb, Element Zr]",2,Zr22 Sb36,0.056999999999999,-0.660847558448279,7.546293002904172
mp-546794,SiO2,"[Element O, Element Si]",2,Si2 O4,5.689599999999999,-3.267183893333333,2.223612886125405
mp-32755,La2Te3,"[Element La, Element Te]",2,La16 Te24,1.0395,-1.857414943749999,6.38506570873069
mp-32689,Pr2Se3,"[Element Pr, Element Se]",2,Pr16 Se24,1.475099999999999,-2.190777713854166,6.297756108096001
mp-32635,Sr3P2,"[Element P, Element Sr]",2,Sr24 P16,0.3946,-1.216971497190476,3.530792588013914
mp-32692,Pr2S3,"[Element Pr, Element S]",2,Pr16 S24,1.9475,-2.346662957354167,5.15465786082067
mp-32838,Ce2Te3,"[Element Ce, Element Te]",2,Ce16 Te24,0.0,-1.624888281749999,6.824988199405776
mp-973554,K3Sm,"[Element K, Element Sm]",2,K3 Sm1,0.0,0.565163631499999,1.9324301892773912
mp-973601,HgI3,"[Element Hg, Element I]",2,Hg1 I3,0.0,-0.271265504375001,5.593522432287204
mp-973767,PmBi3,"[Element Bi, Element Pm]",2,Pm1 Bi3,0.0,-0.45992198062499706,10.410827047347935
mp-973461,Hg3C,"[Element C, Element Hg]",2,Hg3 C1,0.0,1.510346734374998,12.884340695092613
mp-973464,LaEr3,"[Element Er, Element La]",2,La1 Er3,0.0,0.074299236250006,8.207326201600129
mp-973627,K3Sr,"[Element K, Element Sr]",2,K3 Sr1,0.0,0.13467816608333202,1.233428755044569
mp-973839,PdAu3,"[Element Au, Element Pd]",2,Pd1 Au3,0.0,-0.096254770000001,17.165870921648242
mp-973271,K3Y,"[Element K, Element Y]",2,K3 Y1,0.0,0.572416271083334,1.5165219902932692
mp-973354,SbPt3,"[Element Pt, Element Sb]",2,Sb1 Pt3,0.0,-0.081859995624995,17.015699597861428
mp-973994,NpPa3,"[Element Np, Element Pa]",2,Np1 Pa3,0.0,0.29892810031250805,16.662345599706512
mp-973883,Ge3Rh,"[Element Ge, Element Rh]",2,Ge3 Rh1,0.0,0.08380679154412,7.909308762886906
mp-974371,Rh3Br,"[Element Br, Element Rh]",2,Rh3 Br1,0.0,0.551899858749999,10.467573076223598
mp-974616,Pt3Rh,"[Element Pt, Element Rh]",2,Pt3 Rh1,0.0,-0.034819157499995,19.007215445705754
mp-974332,S3Br,"[Element Br, Element S]",2,S3 Br1,0.0,0.46270884062500006,2.773862769396037
mp-974420,Re3Mo,"[Element Mo, Element Re]",2,Re3 Mo1,0.0,0.108346480937498,17.713302584791357
mp-974869,Rb3Nb,"[Element Nb, Element Rb]",2,Rb3 Nb1,0.0,1.181301844375,2.588294034240203
mp-974795,Rb3Ti,"[Element Rb, Element Ti]",2,Rb3 Ti1,0.0,0.900219208541666,2.020911969726925
mp-974432,Re3Sn,"[Element Re, Element Sn]",2,Re3 Sn1,0.0,0.5538399125000021,17.310424402296636
mp-974758,Rb3Tl,"[Element Rb, Element Tl]",2,Rb3 Tl1,0.0,0.06328764104166401,3.145306440464491
mp-974856,Rb3Re,"[Element Rb, Element Re]",2,Rb3 Re1,0.0,1.557705373749999,3.611896611600225
mp-974368,Rh3Pb,"[Element Pb, Element Rh]",2,Rh3 Pb1,0.0,0.038008067500001005,13.459936295398832
mp-974430,Re3Ir,"[Element Ir, Element Re]",2,Re3 Ir1,0.0,-0.09152194687499801,21.300408210304333
mp-974751,Rb3Zn,"[Element Rb, Element Zn]",2,Rb3 Zn1,0.0,0.18880026437499903,2.145217037470466
mp-974068,Nd3Th,"[Element Nd, Element Th]",2,Nd3 Th1,0.0,0.077310561875002,8.012920600859914
mp-974330,SBr3,"[Element Br, Element S]",2,S1 Br3,0.0,0.037627709375000006,3.685770235601633
mp-974364,RuAu3,"[Element Au, Element Ru]",2,Ru1 Au3,0.0,0.365786297500001,16.803767675813184
mp-974584,ReAu3,"[Element Au, Element Re]",2,Re1 Au3,0.0,0.655107361250003,18.82276927634531
mp-974358,Ir3Ru,"[Element Ir, Element Ru]",2,Ir3 Ru1,0.0,-0.041019843750007,19.94890007682603
mp-974376,PtRh3,"[Element Pt, Element Rh]",2,Pt1 Rh3,0.0,-0.024695205,14.769646739385594
mp-974613,NdP3,"[Element Nd, Element P]",2,Nd1 P3,0.0,-0.421955675982141,5.106036001132582
mp-974862,Rb3Na,"[Element Na, Element Rb]",2,Rb3 Na1,0.0,0.056405154030171004,1.502870152588959
mp-974386,Rh3F,"[Element F, Element Rh]",2,Rh3 F1,0.0,0.125933554999996,10.022932613350319
mp-974416,Re3W,"[Element Re, Element W]",2,Re3 W1,0.0,0.127502223750006,19.984000991890596
mp-974467,Ru3Cl,"[Element Cl, Element Ru]",2,Ru3 Cl1,0.0,0.8074653325000001,9.603669259587054
mp-974774,Rb3Tc,"[Element Rb, Element Tc]",2,Rb3 Tc1,0.0,1.241442663125,2.755434521331483
mp-974745,Rb3Tm,"[Element Rb, Element Tm]",2,Rb3 Tm1,0.0,0.6352076118749981,2.701693998796022
mp-974846,Rb3Os,"[Element Os, Element Rb]",2,Rb3 Os1,0.0,1.412115256875,4.351016341210922
mp-974445,Re3Ge,"[Element Ge, Element Re]",2,Re3 Ge1,0.0,0.384077281071427,17.482113704496808
mp-974738,KSr3,"[Element K, Element Sr]",2,K1 Sr3,0.0,0.09926039425000001,2.1515263941934952
mp-974972,Rb3Hf,"[Element Hf, Element Rb]",2,Rb3 Hf1,0.0,1.210186479375,3.072298186122563
mp-974982,Rb3In,"[Element In, Element Rb]",2,Rb3 In1,0.0,0.102852842708333,2.625986324669968
mp-975056,Rb3Al,"[Element Al, Element Rb]",2,Rb3 Al1,0.0,0.35960448437499903,2.13723087566776
mp-974925,NdY3,"[Element Nd, Element Y]",2,Nd1 Y3,0.0,0.073709145624999,5.057663006037556
mp-974940,Rb3Mg,"[Element Mg, Element Rb]",2,Rb3 Mg1,0.0,0.19588861062499902,1.8082326830540092
mp-975222,RbSr3,"[Element Rb, Element Sr]",2,Rb1 Sr3,0.0,0.138917125625,2.374265175373805
mp-975452,Hg3Rh,"[Element Hg, Element Rh]",2,Hg3 Rh1,0.0,0.194708390000002,14.717295291859362
mp-974959,Rb3Li,"[Element Li, Element Rb]",2,Rb3 Li1,0.0,0.147673773541666,1.569719864232397
mp-975404,RbCa3,"[Element Ca, Element Rb]",2,Rb1 Ca3,0.0,0.21135005812500002,1.720548427847835
mp-975509,RbBa3,"[Element Ba, Element Rb]",2,Rb1 Ba3,0.0,0.12439313812500001,2.96260893776036
mp-975784,PrY3,"[Element Pr, Element Y]",2,Pr1 Y3,0.0,0.07741293708333401,4.978354177612557
mp-974970,Rb3Mn,"[Element Mn, Element Rb]",2,Rb3 Mn1,0.0,0.6891168873922411,2.106748031433717
mp-974997,Rb3Ge,"[Element Ge, Element Rb]",2,Rb3 Ge1,0.0,0.19687907062499901,2.890599335312197
mp-975043,Rb3Ca,"[Element Ca, Element Rb]",2,Rb3 Ca1,0.0,0.200655536874999,1.665121141365657
mp-975053,Rb3Ba,"[Element Ba, Element Rb]",2,Rb3 Ba1,0.0,0.15017054437499902,1.9507668832250251
mp-975812,PrSm3,"[Element Pr, Element Sm]",2,Pr1 Sm3,0.0,0.026284092083333002,7.121886855731004
mp-974882,Rb3Mo,"[Element Mo, Element Rb]",2,Rb3 Mo1,0.0,1.212481774374999,2.475409885953424
mp-975794,Li3Be,"[Element Be, Element Li]",2,Li3 Be1,0.0,0.24167899125000003,0.848095351762106
mp-975055,Rb3Ac,"[Element Ac, Element Rb]",2,Rb3 Ac1,0.0,0.483285228749999,2.798836166347868
mp-975337,RbF3,"[Element F, Element Rb]",2,Rb1 F3,0.0,-1.456020888124999,3.292823645761049
mp-974966,Rb3Lu,"[Element Lu, Element Rb]",2,Rb3 Lu1,0.0,0.623896145208333,2.704466828411839
mp-975642,Pr3Cu,"[Element Cu, Element Pr]",2,Pr3 Cu1,0.0,0.15455379770833103,7.084571756615319
mp-975868,Li3Al,"[Element Al, Element Li]",2,Li3 Al1,0.0,-0.07757908000000001,1.193074196005416
mp-975461,Hg3Sb,"[Element Hg, Element Sb]",2,Hg3 Sb1,0.0,0.106775836250001,11.44568083727849
mp-975253,RbPr3,"[Element Pr, Element Rb]",2,Rb1 Pr3,0.0,0.5131830443750001,5.174874288110795
mp-975015,Rb3Ga,"[Element Ga, Element Rb]",2,Rb3 Ga1,0.0,0.215421332499999,2.445208268916308
mp-975298,RbNa3,"[Element Na, Element Rb]",2,Rb1 Na3,0.0,0.07112804709051801,1.2977883944041921
mp-975647,Pr3Ag,"[Element Ag, Element Pr]",2,Pr3 Ag1,0.0,0.023750533333334004,7.181903723189216
mp-975411,RbBr3,"[Element Br, Element Rb]",2,Rb1 Br3,0.0,-1.014657263125,4.111145770978965
mp-975641,Pr3Cd,"[Element Cd, Element Pr]",2,Pr3 Cd1,0.0,-0.125826743749996,7.120942254359541
mp-975795,PrTm3,"[Element Pr, Element Tm]",2,Pr1 Tm3,0.0,0.059935552083324004,8.501057052370207
mp-976768,NaMg3,"[Element Mg, Element Na]",2,Na1 Mg3,0.0,0.11308827279102,1.571728844072532
mp-975904,Li3Cd,"[Element Cd, Element Li]",2,Li3 Cd1,0.0,-0.18138230499999902,3.051775950265154
mp-976281,Li3Pd,"[Element Li, Element Pd]",2,Li3 Pd1,0.0,-0.275359101428572,3.5538611926903423
mp-975906,LiAl3,"[Element Al, Element Li]",2,Li1 Al3,0.0,-0.07758537916666601,2.285029235514105
mp-976047,Li3Hg,"[Element Hg, Element Li]",2,Li3 Hg1,0.0,-0.295252721875,5.414102182964885
mp-975887,PrNd3,"[Element Nd, Element Pr]",2,Pr1 Nd3,0.0,0.022200343958338,6.659692309229451
mp-976419,Hf3Bi,"[Element Bi, Element Hf]",2,Hf3 Bi1,0.0,-0.07050890958333801,13.425830862283236
mp-975912,Mo3H,"[Element H, Element Mo]",2,Mo3 H1,0.0,0.8501788037499971,8.64825162033802
mp-975882,Li3Cu,"[Element Cu, Element Li]",2,Li3 Cu1,0.0,0.056218754999999,2.381536341434381
mp-976029,Ho3Zr,"[Element Ho, Element Zr]",2,Ho3 Zr1,0.0,0.08568460749999901,8.488406513589505
mp-976135,PrEr3,"[Element Er, Element Pr]",2,Pr1 Er3,0.0,0.06619891208332901,8.347679196839996
mp-976017,Li3Co,"[Element Co, Element Li]",2,Li3 Co1,0.0,0.32882361625,2.351419119971234
mp-976263,Li3Nb,"[Element Li, Element Nb]",2,Li3 Nb1,0.0,0.703948747499999,2.67988663370254
mp-976408,Li3Ag,"[Element Ag, Element Li]",2,Li3 Ag1,0.0,-0.12103026124999901,3.27367091521134
mp-976322,Li3Pt,"[Element Li, Element Pt]",2,Li3 Pt1,0.0,-0.45310387178571404,6.381375689571139
mp-976422,Hf3C,"[Element C, Element Hf]",2,Hf3 C1,0.0,0.7622839949999971,12.912079415794006
mp-976025,Li3Ga,"[Element Ga, Element Li]",2,Li3 Ga1,0.0,-0.218064995,2.395922483961496
mp-976742,MgPa3,"[Element Mg, Element Pa]",2,Mg1 Pa3,0.0,0.1994692325,12.362987617899135
mp-976774,NiGe3,"[Element Ge, Element Ni]",2,Ni1 Ge3,0.0,0.28039929812500103,7.069121669810204
mp-976106,Hf3Tl,"[Element Hf, Element Tl]",2,Hf3 Tl1,0.0,-0.024140797500002,14.067170911748525
mp-975909,LiAu3,"[Element Au, Element Li]",2,Li1 Au3,0.0,-0.37749018416666,15.100247536063932
mp-976404,NaF3,"[Element F, Element Na]",2,Na1 F3,0.0,-1.2423262325,3.122512611908672
mp-976417,Nd3Hg,"[Element Hg, Element Nd]",2,Nd3 Hg1,0.0,-0.23436563171874503,8.690621777033954
mp-976418,Nd3Ho,"[Element Ho, Element Nd]",2,Nd3 Ho1,0.0,0.028583768125002,7.246986498771012
mp-976765,Na3Au,"[Element Au, Element Na]",2,Na3 Au1,0.0,-0.17961209249999902,4.6680014786710124
mp-976150,NaAl3,"[Element Al, Element Na]",2,Na1 Al3,0.0,0.187913990862068,2.264951651069404
mp-976355,Lu3Si,"[Element Lu, Element Si]",2,Lu3 Si1,0.0,-0.281090228194443,9.614433245908913
mp-976414,Li3Zn,"[Element Li, Element Zn]",2,Li3 Zn1,0.0,-0.08503013874999901,2.241224119570164
mp-976357,Lu3Sn,"[Element Lu, Element Sn]",2,Lu3 Sn1,0.0,-0.437930591527774,9.989079761172842
mp-976055,Li3In,"[Element In, Element Li]",2,Li3 In1,0.0,-0.287545142499999,3.076131891992593
mp-976075,Li3Ca,"[Element Ca, Element Li]",2,Li3 Ca1,0.0,0.045540925,0.95025120041508
mp-976410,Nd3Cr,"[Element Cr, Element Nd]",2,Nd3 Cr1,0.0,0.36672020937499605,6.72766038363546
mp-976421,Nd3Mg,"[Element Mg, Element Nd]",2,Nd3 Mg1,0.0,0.006731915624999,5.964872647123319
mp-976423,Nd3Pd,"[Element Nd, Element Pd]",2,Nd3 Pd1,0.0,-0.131874508124998,7.870453981910716
mp-976762,NiAg3,"[Element Ag, Element Ni]",2,Ni1 Ag3,0.0,0.1849671575,9.831616730278608
mp-976365,Nd3Au,"[Element Au, Element Nd]",2,Nd3 Au1,0.0,-0.20743211062499803,9.064640380232756
mp-976407,Li3Ac,"[Element Ac, Element Li]",2,Li3 Ac1,0.0,0.180626576874999,3.656663543796773
mp-976053,Ge3Te,"[Element Ge, Element Te]",2,Ge3 Te1,0.0,0.38612305499999805,6.28351976549558
mp-976272,LiCa3,"[Element Ca, Element Li]",2,Li1 Ca3,0.0,0.070148831770832,1.405400504088731
mp-976870,NaNi3,"[Element Na, Element Ni]",2,Na1 Ni3,0.0,0.51746655836207,6.483032580780793
mp-977230,Li3Tc,"[Element Li, Element Tc]",2,Li3 Tc1,0.0,0.6243282262499991,3.375834700928018
mp-977194,Na3Be,"[Element Be, Element Na]",2,Na3 Be1,0.0,0.531240100215517,1.254284132301364
mp-976809,Ni3S,"[Element Ni, Element S]",2,Ni3 S1,0.0,0.021274810624999002,7.778838851853417
mp-977145,Ho3P,"[Element Ho, Element P]",2,Ho3 P1,0.0,-0.44435424074404706,8.945095541270044
mp-978546,Sc3Sb,"[Element Sb, Element Sc]",2,Sc3 Sb1,0.0,-0.57182036,4.634842823202932
mp-978272,Mg3Br,"[Element Br, Element Mg]",2,Mg3 Br1,0.0,-0.235096487499999,2.493247438916912
mp-978548,SmEr3,"[Element Er, Element Sm]",2,Sm1 Er3,0.0,0.05636952249999801,8.648509806481933
mp-977403,Na3Tl,"[Element Na, Element Tl]",2,Na3 Tl1,0.0,-0.094140162499998,3.86787485580153
mp-978535,SmDy3,"[Element Dy, Element Sm]",2,Sm1 Dy3,0.0,0.037194861249999,8.250973826381856
mp-977128,NaRu3,"[Element Na, Element Ru]",2,Na1 Ru3,0.0,0.81702437336207,9.186959215817277
mp-977366,NpSb3,"[Element Np, Element Sb]",2,Np1 Sb3,0.0,-0.292754159687499,9.3083143727987