material_id,formula_pretty,elements,nelements,composition,band_gap,formation_energy_per_atom,density
mp-1188462,Ta5Ga3,"[Element Ga, Element Ta]",2,Ta10 Ga6,0.0,-0.31871174100000105,13.617949767741983
mp-1188934,Eu5Ge3,"[Element Eu, Element Ge]",2,Eu10 Ge6,0.0,-0.740883068124999,6.934076979786671
mp-1188287,Pu5Pb3,"[Element Pb, Element Pu]",2,Pu10 Pb6,0.0,0.44184796078126,13.335597169543655
mp-1120757,V5Bi3,"[Element Bi, Element V]",2,V10 Bi6,0.0,0.448035986249998,9.267302136720685
mp-1159,Zr2Fe,"[Element Fe, Element Zr]",2,Zr4 Fe2,0.0,-0.139135274999998,7.111274052973014
mp-1189525,U3Se5,"[Element Se, Element U]",2,U6 Se10,0.0,-1.320176681464841,10.379706709324541
mp-1105948,Ce5Sn3,"[Element Ce, Element Sn]",2,Ce10 Sn6,0.0,-0.504619331249998,7.409725286665512
mp-1105936,Cr3Si5,"[Element Cr, Element Si]",2,Cr6 Si10,0.0,0.283631557500001,4.8632202618829545
mp-1188772,Tb5Tl3,"[Element Tb, Element Tl]",2,Tb10 Tl6,0.0,-0.303515446666668,10.062172899865388
mp-1189085,Er5Tl3,"[Element Er, Element Tl]",2,Er10 Tl6,0.0,-0.269575144375001,10.53177837093045
mp-1113,BW2,"[Element B, Element W]",2,B2 W4,0.0,-0.24568312916666402,17.01973978059663
mp-1148,Th2Pd,"[Element Pd, Element Th]",2,Th4 Pd2,0.0,-0.519100546666663,11.858001541738368
mp-1106120,Sr5Tl3,"[Element Sr, Element Tl]",2,Sr10 Tl6,0.0,-0.369173493541662,5.460273948614237
mp-1189395,Dy5Tl3,"[Element Dy, Element Tl]",2,Dy10 Tl6,0.0,-0.42267200124999904,10.10942210532429
mp-1189576,Ge3W5,"[Element Ge, Element W]",2,Ge6 W10,0.0,0.18910151125000102,15.219149910461683
mp-1105764,Pr5Si3,"[Element Pr, Element Si]",2,Pr10 Si6,0.0,-0.5362706797916661,6.02431951285362
mp-1105959,Re5Si3,"[Element Re, Element Si]",2,Re10 Si6,0.0,-0.063527920312502,15.195255522285608
mp-1188836,V5B3,"[Element B, Element V]",2,V10 B6,0.0,-0.6705115168750001,5.775273463008833
mp-1189187,Nb3Ge,"[Element Ge, Element Nb]",2,Nb12 Ge4,0.0,-0.156416011874998,8.175051548810133
mp-1189870,Ca5Ga3,"[Element Ca, Element Ga]",2,Ca10 Ga6,0.0,-0.42938137937499804,2.908997131506578
mp-1189767,La5Tl3,"[Element La, Element Tl]",2,La10 Tl6,0.0,-0.346893335625004,8.193638940721323
mp-1197692,Tb3Ga2,"[Element Ga, Element Tb]",2,Tb24 Ga16,0.016799999999999,-0.6425194445000011,8.109400713136614
mp-1203103,Nd3Ga2,"[Element Ga, Element Nd]",2,Nd24 Ga16,0.0,-0.5741332089999981,6.843804838838509
mp-1198715,Er3Rh2,"[Element Er, Element Rh]",2,Er42 Rh28,0.0,-0.807489305999998,10.588321502409965
mp-1190061,Eu5Si3,"[Element Eu, Element Si]",2,Eu10 Si6,0.0,-0.585920125000001,6.144226287578682
mp-1196567,Er3Ir2,"[Element Er, Element Ir]",2,Er42 Ir28,0.0,-0.8527732754285691,13.157511516089308
mp-1190042,U3S5,"[Element S, Element U]",2,U6 S10,0.0,-1.749829851132908,9.184811467869478
mp-1198546,Er3Ga2,"[Element Er, Element Ga]",2,Er24 Ga16,0.002499999999999,-0.6417695012499991,8.871035209160073
mp-1199315,Lu3Ga2,"[Element Ga, Element Lu]",2,Lu24 Ga16,0.026499999999999004,-0.6405379294999981,9.631090286075493
mp-1202141,Tm3Ga2,"[Element Ga, Element Tm]",2,Tm24 Ga16,0.0,-0.6461011415000031,9.091840567142334
mp-1204272,Y3Ir2,"[Element Ir, Element Y]",2,Y42 Ir28,0.0,-0.7451669254285711,9.375235951684328
mp-1204219,Dy3Ir2,"[Element Dy, Element Ir]",2,Dy42 Ir28,0.0,-0.799615182571428,12.95845666572528
mp-1200753,Ho3Rh2,"[Element Ho, Element Rh]",2,Ho42 Rh28,0.0,-0.777818700714282,10.801414940069527
mp-1189750,Ho5In3,"[Element Ho, Element In]",2,Ho10 In6,0.0,-0.366502071874995,8.605436512734162
mp-1196999,Y3Rh2,"[Element Rh, Element Y]",2,Y42 Rh28,0.0,-0.710225390714284,6.954081499936981
mp-1195872,Sm3Ga2,"[Element Ga, Element Sm]",2,Sm24 Ga16,0.016300000000000002,-0.6000515432500001,7.347196955801256
mp-1197194,Ho3Ga2,"[Element Ga, Element Ho]",2,Ho24 Ga16,0.027600000000000003,-0.5319828224999961,8.846412073451917
mp-1198700,Tb3Ir2,"[Element Ir, Element Tb]",2,Tb42 Ir28,0.0,-0.7795576137142841,12.320105512688208
mp-1202922,Tb3Rh2,"[Element Rh, Element Tb]",2,Tb42 Rh28,0.0,-0.7436494808571411,10.260815372589581
mp-1198319,Ho3Ir2,"[Element Ho, Element Ir]",2,Ho42 Ir28,0.0,-0.8206077878571381,12.91000848282053
mp-1363,Na2Au,"[Element Au, Element Na]",2,Na4 Au2,0.0,-0.297318376666666,5.395634689324452
mp-1214016,Ca5Sn3,"[Element Ca, Element Sn]",2,Ca10 Sn6,0.0,-0.6457098799999981,3.59206755578882
mp-1205197,Dy3Ga2,"[Element Dy, Element Ga]",2,Dy24 Ga16,0.005699999999999,-0.6440394552499981,8.393306096658822
mp-1397055,CoF4,"[Element Co, Element F]",2,Co2 F8,1.613999999999999,-1.713008289,3.16137057740592
mp-1406123,NiF4,"[Element F, Element Ni]",2,Ni2 F8,0.8967,-1.3618308325,2.955236798417384
mp-1247737,LaFe9,"[Element Fe, Element La]",2,La2 Fe18,0.0,0.215011349499999,7.809280397611645
mp-15617,Cr5B3,"[Element B, Element Cr]",2,Cr10 B6,0.0,-0.26611382593750005,6.726319425790365
mp-1207164,IN2,"[Element I, Element N]",2,I2 N4,0.0,3.115308923333332,2.303877435516068
mp-1396678,FeF4,"[Element F, Element Fe]",2,Fe2 F8,1.6505,-1.9570883979999991,2.9161569380958112
mp-12772,Hf2Al,"[Element Al, Element Hf]",2,Hf4 Al2,0.0,-0.31007932000000404,10.543519126838898
mp-1271079,CoF3,"[Element Co, Element F]",2,Co4 F12,1.6435,-2.150928883125,3.396809423561567
mp-13052,Sr5Si3,"[Element Si, Element Sr]",2,Sr10 Si6,0.0,-0.351916709999999,3.37948024741582
mp-1212535,Ge3W5,"[Element Ge, Element W]",2,Ge6 W10,0.0,0.353523761875003,15.075508722854668
mp-1219422,Sc7As3,"[Element As, Element Sc]",2,Sc28 As12,0.0,-0.9860226027499971,4.269691909234679
mp-1205201,Dy3Rh2,"[Element Dy, Element Rh]",2,Dy42 Rh28,0.0,-0.7596818291428541,10.546610357311005
mp-1204352,Y3Ga2,"[Element Ga, Element Y]",2,Y24 Ga16,0.0,-0.5481852152499991,5.407062303477001
mp-1332,Si3Mo5,"[Element Mo, Element Si]",2,Si6 Mo10,0.0,-0.398960580625001,8.220822537828795
mp-1385977,MnF4,"[Element F, Element Mn]",2,Mn2 F8,0.18080000000000002,-2.064412764586207,2.870423806430343
mp-1212214,Ho5Tl3,"[Element Ho, Element Tl]",2,Ho10 Tl6,0.0,-0.41578276999999203,10.364244513046499
mp-13686,Nb5Si3,"[Element Nb, Element Si]",2,Nb10 Si6,0.0,-0.7232154362499971,7.01340953311384
mp-1245797,CuAs2,"[Element As, Element Cu]",2,Cu2 As4,0.0,0.23650515333333202,7.022450801500514
mp-15809,Cr2B,"[Element B, Element Cr]",2,Cr4 B2,0.0,-0.206672950833334,6.879656247392041
mp-12773,Zr2Al,"[Element Al, Element Zr]",2,Zr4 Al2,0.0,-0.36838501500000104,5.518459958395972
mp-1278,Zr2Si,"[Element Si, Element Zr]",2,Zr4 Si2,0.0,-0.8331100050000011,6.004979142031671
mp-13208,Mg2Pt,"[Element Mg, Element Pt]",2,Mg4 Pt2,0.0,-0.6882326533333321,7.232374613179499
mp-1884,Ca5Ge3,"[Element Ca, Element Ge]",2,Ca10 Ge6,0.0,-0.7223121262500011,3.160075596542657
mp-1651,Th2Al,"[Element Al, Element Th]",2,Th4 Al2,0.0,-0.26241455999998603,9.62983428642046
mp-17593,Ta5Ge3,"[Element Ge, Element Ta]",2,Ta10 Ge6,0.0,-0.40993436708333003,14.096300589278746
mp-16724,Zr5Al3,"[Element Al, Element Zr]",2,Zr10 Al6,0.0,-0.435863635624999,5.381920099318409
mp-174,Tl5Te3,"[Element Te, Element Tl]",2,Tl10 Te6,0.0,-0.432765907708335,8.857709529873018
mp-1867,Ta2Ni,"[Element Ni, Element Ta]",2,Ta4 Ni2,0.0,-0.23848323988888803,15.036324253874438
mp-17757,Sr5Ge3,"[Element Ge, Element Sr]",2,Sr10 Ge6,0.0,-0.6359593937499991,4.144935031473728
mp-1915,Fe2B,"[Element B, Element Fe]",2,Fe4 B2,0.0,-0.307493444722221,7.420077583830263
mp-16315,GePt3,"[Element Ge, Element Pt]",2,Ge2 Pt6,0.0,-0.32251462874999903,17.850806614266407
mp-1629,Th2Au,"[Element Au, Element Th]",2,Th4 Au2,0.0,-0.420564369999998,13.079689001683734
mp-1989,Ta5Si3,"[Element Si, Element Ta]",2,Ta10 Si6,0.0,-0.655007507083333,12.977537540026486
mp-1836,TlSe,"[Element Se, Element Tl]",2,Tl4 Se4,0.197999999999999,-0.37315311578124905,7.997060555923034
mp-1924816,CrF4,"[Element Cr, Element F]",2,Cr2 F8,1.315599999999999,-2.257201886,2.738225973972461
mp-1841,SiIr3,"[Element Ir, Element Si]",2,Si2 Ir6,0.0,-0.404167635000007,18.208518264401498
mp-16842,Nb5Ge3,"[Element Ge, Element Nb]",2,Nb10 Ge6,0.0,-0.476664723125001,8.41809903728522
mp-16223,TlTe,"[Element Te, Element Tl]",2,Tl8 Te8,0.0,-0.31998886937500304,8.146910175176934
mp-17325,Ba5Sn3,"[Element Ba, Element Sn]",2,Ba10 Sn6,0.0,-0.6202585968749991,4.857812452104312
mp-1950,SrS2,"[Element S, Element Sr]",2,Sr2 S4,1.2822,-1.593265490208332,3.489948853995782
mp-17094,Ge3Mo5,"[Element Ge, Element Mo]",2,Ge6 Mo10,0.0,-0.111207846874997,9.624721512420399
mp-1726,KO3,"[Element K, Element O]",2,K4 O12,0.4127,-0.651055524312499,2.04941168579816
mp-17720,Sr5Sn3,"[Element Sn, Element Sr]",2,Sr10 Sn6,0.0,-0.737352021874999,4.323145678725532
mp-16370,Th2Ge,"[Element Ge, Element Th]",2,Th4 Ge2,0.0,-0.6408838399999961,10.633173337950206
mp-17615,Ta5Ge3,"[Element Ge, Element Ta]",2,Ta10 Ge6,0.0,-0.38599991395832906,14.12437911295891
mp-2233,Th2Ag,"[Element Ag, Element Th]",2,Th4 Ag2,0.0,-0.06417755055554801,11.264763790966509
mp-22795,Pb2Au,"[Element Au, Element Pb]",2,Pb4 Au2,0.0,-0.089213313333336,12.882576233135435
mp-1992,Pu5Ru3,"[Element Pu, Element Ru]",2,Pu10 Ru6,0.0,0.298661862031258,15.235961088337492
mp-20086,MnSn2,"[Element Mn, Element Sn]",2,Mn2 Sn4,0.0,0.009669549022982001,8.165669136955971
mp-21117,FeGe2,"[Element Fe, Element Ge]",2,Fe2 Ge4,0.0,-0.06333883666666601,7.777100468211013
mp-20318,Mn2B,"[Element B, Element Mn]",2,Mn4 B2,0.0,-0.25366891215517,7.594048464881828
mp-2786,Ca5Zn3,"[Element Ca, Element Zn]",2,Ca10 Zn6,0.0,-0.200851730624999,2.791938431401539
mp-2081,TlTe,"[Element Te, Element Tl]",2,Tl8 Te8,0.0,-0.43137788937500304,8.201701168332908
mp-20599,PdPb2,"[Element Pb, Element Pd]",2,Pd2 Pb4,0.0,-0.20799519000000002,12.164739082784793
mp-21428,Th2In,"[Element In, Element Th]",2,Th4 In2,0.0,-0.27992816666665904,10.378589853867895
mp-2387,Th2Zn,"[Element Th, Element Zn]",2,Th4 Zn2,0.0,-0.16844641499999502,10.869775424910735
mp-2501,BMo2,"[Element B, Element Mo]",2,B2 Mo4,0.0,-0.32216311416666804,9.217874793885146
mp-2848,Pu5Ir3,"[Element Ir, Element Pu]",2,Pu10 Ir6,0.0,-0.13564146109374,17.207954168803614
mp-20155,CoSn2,"[Element Co, Element Sn]",2,Co2 Sn4,0.0,-0.05180113000000101,9.086250659342552
mp-19974,In2Ag,"[Element Ag, Element In]",2,In4 Ag2,0.0,-0.050005156666661006,8.341890265437295
mp-21108,U6Fe,"[Element Fe, Element U]",2,U12 Fe2,0.0,-0.005493935714280001,18.244235639182758
mp-2150,BaTe2,"[Element Ba, Element Te]",2,Ba2 Te4,0.12530000000000002,-1.474518219444442,5.437216004973213
mp-2666,CrSb2,"[Element Cr, Element Sb]",2,Cr2 Sb4,0.0,0.0045940866666610005,7.982512898873716
mp-2783,Ta2Si,"[Element Si, Element Ta]",2,Ta4 Si2,0.0,-0.594204636555555,13.456971283698914
mp-2851,VSb2,"[Element Sb, Element V]",2,V2 Sb4,0.0,-0.06083948499999701,8.0744531039737
mp-21318,PtPb2,"[Element Pb, Element Pt]",2,Pt2 Pb4,0.0,-0.170389376666662,14.127113491938026
mp-22142,SiSe2,"[Element Se, Element Si]",2,Si2 Se4,1.9377,-0.507960916041665,3.150727677835988
mp-22752,FeSn2,"[Element Fe, Element Sn]",2,Fe2 Sn4,0.0,0.012180615,8.36399547953507
mp-23180,In5Bi3,"[Element Bi, Element In]",2,In10 Bi6,0.0,0.0008905625000030001,8.34146901723649
mp-20320,InTe,"[Element In, Element Te]",2,In4 Te4,0.0,-0.384689124999997,6.021832258375426
mp-2536,Ni2B,"[Element B, Element Ni]",2,Ni4 B2,0.0,-0.28265351916666603,8.326112071976773
mp-30562,Sc2Co,"[Element Co, Element Sc]",2,Sc4 Co2,0.0,-0.127596688333333,4.451006658905417
mp-30723,Th2Hg,"[Element Hg, Element Th]",2,Th4 Hg2,0.0,-0.203606812499998,12.385600919310829
mp-510494,La5Sn3,"[Element La, Element Sn]",2,La10 Sn6,0.0,-0.8399457556250021,6.544132437777357
mp-31219,Si3W5,"[Element Si, Element W]",2,Si6 W10,0.0,-0.14362240250000002,14.543446625119936
mp-328,Zr2Ni,"[Element Ni, Element Zr]",2,Zr4 Ni2,0.0,-0.32306496833333403,7.299906304575116
mp-510557,CsN3,"[Element Cs, Element N]",2,Cs2 N6,4.2395,-0.21685479031249902,3.325678751136241
mp-542328,Ce5Ga3,"[Element Ce, Element Ga]",2,Ce10 Ga6,0.0,-0.47710436312500004,7.579241250282437
mp-30704,Nb5Ga3,"[Element Ga, Element Nb]",2,Nb10 Ga6,0.0,-0.170255377499998,7.90813061187165
mp-30368,Ca5Au3,"[Element Au, Element Ca]",2,Ca10 Au6,0.0,-0.7121120562499991,5.8933575028158405
mp-30660,Ga5Pd,"[Element Ga, Element Pd]",2,Ga10 Pd2,0.0,-0.224303759166668,7.353839970524968
mp-30571,Tl2Au,"[Element Au, Element Tl]",2,Tl4 Au2,0.0,-0.045777170000008006,13.087454827760286
mp-510219,Sn2Ru,"[Element Ru, Element Sn]",2,Sn4 Ru2,0.0,-0.09360177833333601,9.543632969731759
mp-30371,Cd5Au3,"[Element Au, Element Cd]",2,Cd10 Au6,0.0,-0.20018613062499901,12.015218936633751
mp-322,TlS,"[Element S, Element Tl]",2,Tl4 S4,0.47400000000000003,-0.45071957416667,7.348621675461998
mp-493,Co2B,"[Element B, Element Co]",2,Co4 B2,0.0,-0.174664446666665,8.184708965211051
mp-542019,Np5Ge3,"[Element Ge, Element Np]",2,Np10 Ge6,0.0,0.12250409453125101,15.326044811198967
mp-31154,Ca5Hg3,"[Element Ca, Element Hg]",2,Ca10 Hg6,0.0,-0.47338767343750304,5.408172554334707
mp-31172,Ca5Ag3,"[Element Ag, Element Ca]",2,Ca10 Ag6,0.0,-0.254754581874998,3.663626446482945
mp-30572,Hf2Ga,"[Element Ga, Element Hf]",2,Hf4 Ga2,0.0,-0.46835036833333704,12.125597851620531
mp-30666,Sc3Ga2,"[Element Ga, Element Sc]",2,Sc24 Ga16,0.0,-0.6371271770000001,4.4637317493891615
mp-30823,Pu5Os3,"[Element Os, Element Pu]",2,Pu10 Os6,0.0,0.38132450578125804,17.855597857074347
mp-321,RhPb2,"[Element Pb, Element Rh]",2,Rh2 Pb4,0.0,-0.10320523499999901,12.87746177867803
mp-542342,Dy5Ga3,"[Element Dy, Element Ga]",2,Dy10 Ga6,0.0,-0.5914715650000021,8.341153408840597
mp-554175,SiO2,"[Element O, Element Si]",2,Si16 O32,5.8291,-3.168881172916666,1.624857146007125
mp-568376,Ta5Ga3,"[Element Ga, Element Ta]",2,Ta10 Ga6,0.0,-0.318098100208331,13.90719439474592
mp-568,TiSb2,"[Element Sb, Element Ti]",2,Ti2 Sb4,0.0,-0.40897059555555404,7.432342487722455
mp-567735,Nd5Si3,"[Element Nd, Element Si]",2,Nd10 Si6,0.0,-0.667828575937498,6.273556578737529
mp-554543,SiO2,"[Element O, Element Si]",2,Si8 O16,5.6129,-3.251487015416666,1.824809285301174
mp-569837,Ti3Sb,"[Element Sb, Element Ti]",2,Ti12 Sb4,0.0,-0.37725839312500004,6.001749996473595
mp-569251,Lu7Sb3,"[Element Lu, Element Sb]",2,Lu28 Sb12,0.0,-0.768250803916657,9.782352896447568
mp-567996,Nb5Si3,"[Element Nb, Element Si]",2,Nb10 Si6,0.0,-0.6709278362499981,7.05665342550373
mp-568324,Cr5Ge3,"[Element Cr, Element Ge]",2,Cr10 Ge6,0.0,0.11252065249999801,7.745604330834574
mp-554258,SiO2,"[Element O, Element Si]",2,Si16 O32,5.522,-3.25519786375,1.8024077515419812
mp-542484,Sr5Cd3,"[Element Cd, Element Sr]",2,Sr10 Cd6,0.0,-0.229375212499999,4.077884955604881
mp-568144,Dy5In3,"[Element Dy, Element In]",2,Dy10 In6,0.0,-0.535891259375002,8.581888915284816
mp-569833,Zr2Ga,"[Element Ga, Element Zr]",2,Zr4 Ga2,0.0,-0.5389846233333341,6.867239993895625
mp-568671,V5Si3,"[Element Si, Element V]",2,V10 Si6,0.0,-0.610606585624999,5.4709810402352375
mp-568195,U6Mn,"[Element Mn, Element U]",2,U12 Mn2,0.0,0.026661801724143,18.115314511248936
mp-565,Sn2Rh,"[Element Rh, Element Sn]",2,Sn4 Rh2,0.0,-0.368384586666665,9.529446012487144
mp-570696,Pr5Sn3,"[Element Pr, Element Sn]",2,Pr10 Sn6,0.0,-0.671518957291665,6.9011493293593436
mp-569891,Nb5Ge3,"[Element Ge, Element Nb]",2,Nb10 Ge6,0.0,-0.199004106250001,8.142230591984395
mp-570175,Ce5Si3,"[Element Ce, Element Si]",2,Ce10 Si6,0.0,-0.637579376249998,6.497698548038333
mp-570287,Ta5Si3,"[Element Si, Element Ta]",2,Ta10 Si6,0.0,-0.5982069858333291,12.976450669920748
mp-570362,Sr5In3,"[Element In, Element Sr]",2,Sr10 In6,0.0,-0.33457494749999905,4.089611585496235
mp-568411,Th2Ga,"[Element Ga, Element Th]",2,Th4 Ga2,0.0,-0.41488558499999806,10.6757242279073
mp-570293,Nb5Ga3,"[Element Ga, Element Nb]",2,Nb10 Ga6,0.0,-0.407048421249999,8.23911334535366
mp-568944,Yb5Au3,"[Element Au, Element Yb]",2,Yb10 Au6,0.0,-0.7737768674999971,12.521815501086012
mp-570469,Pr5Tl3,"[Element Pr, Element Tl]",2,Pr10 Tl6,0.0,-0.443211939791666,8.553578296823328
mp-571212,Yb5Ag3,"[Element Ag, Element Yb]",2,Yb10 Ag6,0.0,-0.230674216249997,9.91727576279833
mp-571297,AgN3,"[Element Ag, Element N]",2,Ag2 N6,1.631499999999999,0.644938685833334,4.865613227821148
mp-570896,Tl2Pd,"[Element Pd, Element Tl]",2,Tl4 Pd2,0.0,-0.15898911666666501,12.613855061699198
mp-746,Sr5Si3,"[Element Si, Element Sr]",2,Sr10 Si6,0.0,-0.456398266875,3.355618384898804
mp-760385,In2Ag,"[Element Ag, Element In]",2,In4 Ag2,0.0,0.045937750648154,7.259151773396824
mp-571664,Zr2Rh,"[Element Rh, Element Zr]",2,Zr4 Rh2,0.0,-0.59794108666667,7.930736188055157
mp-827,KN3,"[Element K, Element N]",2,K2 N6,3.8956,-0.22111233375000103,2.057829582410366
mp-622106,Ba5Pb3,"[Element Ba, Element Pb]",2,Ba10 Pb6,0.0,-0.537898847500001,5.941498461913238
mp-755435,Tl2Au,"[Element Au, Element Tl]",2,Tl4 Au2,0.0,-0.028241393333341,12.568054477111275
mp-680302,Ca31Sn20,"[Element Ca, Element Sn]",2,Ca62 Sn40,0.035699999999999,-0.656129290686273,3.778783289755136
mp-793,Ca5Si3,"[Element Ca, Element Si]",2,Ca10 Si6,0.0,-0.554245293125001,2.184300966345609
mp-582635,U6Co,"[Element Co, Element U]",2,U12 Co2,0.0,-0.0030687889285770003,18.350875555967026
mp-574,Ta2Co,"[Element Co, Element Ta]",2,Ta4 Co2,0.0,-0.234795238222217,15.20657722523519
mp-636056,KN3,"[Element K, Element N]",2,K2 N6,0.0,0.8158647999999981,1.050877841466075
mp-7022,V5As3,"[Element As, Element V]",2,V10 As6,0.0,-0.48278809718750004,7.319687670844197
mp-571160,Tl2Pt,"[Element Pt, Element Tl]",2,Tl4 Pt2,0.0,-0.10629864666666801,14.764386334257209
mp-680426,Pu31Pt20,"[Element Pt, Element Pu]",2,Pu62 Pt40,0.0,-0.334292132279404,16.06139448509083
mp-628,Zr2Co,"[Element Co, Element Zr]",2,Zr4 Co2,0.0,-0.176628426666667,7.281141626833729
mp-636821,U6Ni,"[Element Ni, Element U]",2,U12 Ni2,0.0,-0.018942877857136,18.230911680670584
mp-637308,Ce5Sn3,"[Element Ce, Element Sn]",2,Ce10 Sn6,0.0,-0.529866996874995,7.012330501979223
mp-743,RbN3,"[Element N, Element Rb]",2,Rb2 N6,4.1608,-0.140204309375,2.834925565328127
mp-7506,Cr5Si3,"[Element Cr, Element Si]",2,Cr10 Si6,0.0,-0.12199586687500201,6.203104115471116
mp-861,Hf2Ni,"[Element Hf, Element Ni]",2,Hf4 Ni2,0.0,-0.331178753333333,13.05335235149764
mp-956,U3Si,"[Element Si, Element U]",2,U6 Si2,0.0,-0.268227811250007,16.17152138249014
mp-982261,PbSe2,"[Element Pb, Element Se]",2,Pb2 Se4,0.0,-0.40467229270833105,7.406655582936878
mp-870,TlN3,"[Element N, Element Tl]",2,Tl2 N6,1.7584,0.310554844687501,5.822987526243125
mp-9939,Hf2Ge,"[Element Ge, Element Hf]",2,Hf4 Ge2,0.0,-0.7210517066666711,12.450080188393061
mp-998,Al2Cu,"[Element Al, Element Cu]",2,Al4 Cu2,0.0,-0.16506810666666602,4.533902325917433
mp-862621,GaPt3,"[Element Ga, Element Pt]",2,Ga2 Pt6,0.0,-0.44416244312500003,18.11927880812029
mp-9938,Hf2Si,"[Element Hf, Element Si]",2,Hf4 Si2,0.0,-0.7910358300000031,11.538330656684913
mp-1077017,HfV2,"[Element Hf, Element V]",2,Hf2 V4,0.0,0.038371424999998,9.305373266529717
mp-1087242,CeSe2,"[Element Ce, Element Se]",2,Ce16 Se32,0.980599999999999,-1.398635912395832,1.580504515884225
mp-1077404,YbSi2,"[Element Si, Element Yb]",2,Yb2 Si4,0.0,-0.48630903166666606,6.896709827129023
mp-1080295,CeSe2,"[Element Ce, Element Se]",2,Ce2 Se4,0.5192,-1.820280441562499,4.673371924387856
mp-1080525,FeB,"[Element B, Element Fe]",2,Fe4 B4,0.0,-0.379546867083332,6.7843569021940064
mp-1071768,TbGe2,"[Element Ge, Element Tb]",2,Tb2 Ge4,0.0,-0.603520158888888,7.545993539490367
mp-1018026,LiAg,"[Element Ag, Element Li]",2,Li2 Ag2,0.0,-0.16617734083333402,5.810633866201821
mp-1071980,SrN2,"[Element N, Element Sr]",2,Sr2 N4,0.0,1.427497977499999,2.316565143733625
mp-1077398,TbSi2,"[Element Si, Element Tb]",2,Tb2 Si4,0.0,-0.584975848333336,6.212437813876175
mp-10128,ThGe2,"[Element Ge, Element Th]",2,Th2 Ge4,0.0,-0.566024078333332,9.006721983652044
mp-1072248,EuSi2,"[Element Eu, Element Si]",2,Eu2 Si4,0.0,-0.558053771666666,5.5179831344705015
mp-1080664,CrB,"[Element B, Element Cr]",2,Cr4 B4,0.0,-0.41076425125000005,6.356212421583301
mp-10213,YGe2,"[Element Ge, Element Y]",2,Y2 Ge4,0.0,-0.580612243888888,5.852708121597142
mp-1065115,MoPb,"[Element Mo, Element Pb]",2,Mo2 Pb2,0.0,0.9690612200000001,12.306854328215538
mp-1102064,MgAl2,"[Element Al, Element Mg]",2,Mg4 Al8,0.0,0.029713202499999,2.348385368394741