material_id,formula_pretty,elements,nelements,composition,band_gap,formation_energy_per_atom,density
mp-1217358,Te3Au,"[Element Au, Element Te]",2,Te3 Au1,0.0,0.012965422499998,7.729189325795074
mp-1217469,TbTe2,"[Element Tb, Element Te]",2,Tb1 Te2,0.0,-0.27931436999999903,6.02756668191451
mp-1217629,Tb3Mg,"[Element Mg, Element Tb]",2,Tb3 Mg1,0.0,-0.012018333749999001,6.934045867746731
mp-1220479,Nb8N5,"[Element N, Element Nb]",2,Nb8 N5,0.0,-0.9449762310576941,7.9879908529724535
mp-1218044,Ta3Ru2,"[Element Ru, Element Ta]",2,Ta6 Ru4,0.0,-0.30993650840000503,15.243034841547352
mp-1222584,Li3Ag2,"[Element Ag, Element Li]",2,Li6 Ag4,0.0,-0.144521752999999,4.874477690987475
mp-1216825,TiIn,"[Element In, Element Ti]",2,Ti2 In2,0.0,-0.13931268999999902,7.1174521183014114
mp-1224311,GeSb,"[Element Ge, Element Sb]",2,Ge1 Sb1,0.0,0.147492577499999,6.357142202934344
mp-1217326,TePd3,"[Element Pd, Element Te]",2,Te1 Pd3,0.0,-0.155621820233868,10.537837305029608
mp-1217961,TaAu,"[Element Au, Element Ta]",2,Ta1 Au1,0.0,-0.034649843666663,18.035509519168283
mp-1220519,Nb4N3,"[Element N, Element Nb]",2,Nb4 N3,0.0,0.068591922440475,5.665727431849526
mp-1221564,MnSb4,"[Element Mn, Element Sb]",2,Mn1 Sb4,0.0,0.225145325103449,6.325064796859907
mp-1225009,Fe3Ni2,"[Element Fe, Element Ni]",2,Fe6 Ni4,0.0,-0.032160788999998004,8.317170314372055
mp-1217345,ThZr3,"[Element Th, Element Zr]",2,Th1 Zr3,0.0,0.075075474999998,8.241277137884918
mp-1217081,Ti3Al5,"[Element Al, Element Ti]",2,Ti3 Al5,0.0,-0.43391026125000004,3.660579253167761
mp-1225083,FeCo3,"[Element Co, Element Fe]",2,Fe1 Co3,0.0,0.05374232749999901,8.99362863011787
mp-1221542,MnO2,"[Element Mn, Element O]",2,Mn1 O2,0.0,-1.377868095977011,4.566348099982005
mp-1222002,MgB3,"[Element B, Element Mg]",2,Mg2 B6,0.0,0.29962134906249904,1.747994935910456
mp-1223984,HgPb3,"[Element Hg, Element Pb]",2,Hg1 Pb3,0.0,0.038397375624995005,11.560086647279102
mp-1224016,HgPt3,"[Element Hg, Element Pt]",2,Hg1 Pt3,0.0,0.063303163749999,19.232512267605365
mp-1224475,HfPt4,"[Element Hf, Element Pt]",2,Hf4 Pt16,0.0,-0.9544547249999991,20.010350498711215
mp-1219474,Sb3Au,"[Element Au, Element Sb]",2,Sb3 Au1,0.0,0.025331640000008003,8.421470549548841
mp-1219565,RbO2,"[Element O, Element Rb]",2,Rb1 O2,0.0,0.031629490833333,1.944152134984909
mp-1220048,NdTe,"[Element Nd, Element Te]",2,Nd1 Te1,0.0,-0.34775620374999805,5.905274959080734
mp-1222412,LiB3,"[Element B, Element Li]",2,Li2 B6,0.1282,-0.161667837291667,1.765330103074422
mp-1223633,InSb,"[Element In, Element Sb]",2,In1 Sb1,0.0,-0.047225144999998005,6.677157149110249
mp-1223784,K2O,"[Element K, Element O]",2,K2 O1,0.0,-1.033913483166665,1.86889526577865
mp-1224013,Ho3Mg,"[Element Ho, Element Mg]",2,Ho3 Mg1,0.0,0.0037149375000050003,7.36927377618907
mp-1223320,KO2,"[Element K, Element O]",2,K1 O2,0.0,0.009322380916666,1.449975754001038
mp-1221697,Mn3Si,"[Element Mn, Element Si]",2,Mn3 Si1,0.0,-0.20176831603448503,7.233003762433924
mp-1217113,Ti3Ir2,"[Element Ir, Element Ti]",2,Ti6 Ir4,0.0,-0.6879706280000001,11.3571755127331
mp-1218920,SnSb,"[Element Sb, Element Sn]",2,Sn1 Sb1,0.0,0.109661244999998,6.854921112698876
mp-1219175,Sm2O,"[Element O, Element Sm]",2,Sm2 O1,0.0,-2.047382921666668,8.371442854907846
mp-1219667,PuGa,"[Element Ga, Element Pu]",2,Pu1 Ga1,0.0,-0.540177250624999,12.119000898573317
mp-1223699,InPd3,"[Element In, Element Pd]",2,In1 Pd3,0.0,-0.381325367499997,10.756594644595161
mp-1225154,Fe3Sn,"[Element Fe, Element Sn]",2,Fe3 Sn1,0.0,0.128022243750001,8.303877944267631
mp-1225170,Fe2Si5,"[Element Fe, Element Si]",2,Fe4 Si10,0.0,-0.259145679285714,4.487122116705606
mp-1359,NbIr,"[Element Ir, Element Nb]",2,Nb2 Ir2,0.0,-0.519617979999999,14.752158330153208
mp-1526,TiHg,"[Element Hg, Element Ti]",2,Ti2 Hg2,0.0,-0.045858262083335,11.062702323367855
mp-1601,TaRu,"[Element Ru, Element Ta]",2,Ta1 Ru1,0.0,-0.346225666166667,14.851498993135529
mp-1225436,ErTe,"[Element Er, Element Te]",2,Er1 Te1,0.0,-0.24729253749999403,7.001881863814181
mp-1226058,Co4Ge,"[Element Co, Element Ge]",2,Co4 Ge1,0.0,0.8074949959999981,7.359326917193376
mp-1963,NbRh,"[Element Nb, Element Rh]",2,Nb2 Rh2,0.0,-0.40131706999999905,10.268198231003392
mp-1225210,Fe3Si,"[Element Fe, Element Si]",2,Fe3 Si1,0.0,-0.20646127249999802,7.335734032422948
mp-1225566,Er3Mg,"[Element Er, Element Mg]",2,Er3 Mg1,0.0,-0.009437183749998001,7.58275137415319
mp-1228752,Al4Cu15,"[Element Al, Element Cu]",2,Al4 Cu15,0.0,-0.10831318631579101,7.33078974545888
mp-1226145,Co3Sn,"[Element Co, Element Sn]",2,Co3 Sn1,0.0,0.21022370374999902,9.290664745054078
mp-1227283,BiAu,"[Element Au, Element Bi]",2,Bi1 Au1,0.0,0.23988130875000002,12.077056360793781
mp-1281,VIr,"[Element Ir, Element V]",2,V2 Ir2,0.0,-0.5805010675000021,14.729477201965938
mp-1670,MnPt,"[Element Mn, Element Pt]",2,Mn2 Pt2,0.0,-0.346201598965516,13.806613246286044
mp-19819,GdIn,"[Element Gd, Element In]",2,Gd1 In1,0.0,-0.5669377199999981,8.262250854156385
mp-1225309,Dy3Mg,"[Element Dy, Element Mg]",2,Dy3 Mg1,0.0,-0.0033040574999970004,7.198949091451753
mp-1225751,Cu3Pd2,"[Element Cu, Element Pd]",2,Cu6 Pd4,0.0,-0.106051114999996,10.389508724051597
mp-1227355,Bi3Au,"[Element Au, Element Bi]",2,Bi3 Au1,0.0,0.17617872187500402,10.704341127202403
mp-12581,CdTe,"[Element Cd, Element Te]",2,Cd1 Te1,0.0,-0.07460553500000301,6.531949838797076
mp-1225186,Fe2Si,"[Element Fe, Element Si]",2,Fe4 Si2,0.0,-0.29274539333333205,7.120926216137652
mp-1227975,BaC2,"[Element Ba, Element C]",2,Ba1 C2,0.0,3.41647219,2.866430813302057
mp-1228868,AlNi,"[Element Al, Element Ni]",2,Al1 Ni1,0.0,-0.6581211049999991,6.060902167304869
mp-1644,PrSb,"[Element Pr, Element Sb]",2,Pr1 Sb1,0.0,-1.181147740833331,7.33543572003326
mp-1961,TiAg,"[Element Ag, Element Ti]",2,Ti1 Ag1,0.0,0.10795178166666701,7.42825412166098
mp-1953,TiAl,"[Element Al, Element Ti]",2,Ti1 Al1,0.0,-0.44695741333333305,3.8687884886405763
mp-19889,ThPb,"[Element Pb, Element Th]",2,Th2 Pb2,0.0,-0.41584253636364105,12.102379257072924
mp-1228713,Al4Ni15,"[Element Al, Element Ni]",2,Al4 Ni15,0.0,-0.26948496421052304,7.424929117364063
mp-1229048,Al2Ni3,"[Element Al, Element Ni]",2,Al4 Ni6,0.0,-0.528356531,6.67606712751837
mp-19933,PuSb,"[Element Pu, Element Sb]",2,Pu1 Sb1,0.0,-0.71086983,11.427536609724138
mp-1229041,AgTe3,"[Element Ag, Element Te]",2,Ag1 Te3,0.0,0.023143023125001,6.533483016971941
mp-1225892,CsN3,"[Element Cs, Element N]",2,Cs1 N3,3.79,-0.2055569778125,3.007834273768517
mp-1235,TiIr,"[Element Ir, Element Ti]",2,Ti2 Ir2,0.0,-0.8576200016666671,13.36228762222816
mp-12794,Al2Cu,"[Element Al, Element Cu]",2,Al2 Cu1,0.0,-0.05815897999999901,4.004613179778768
mp-12675,MnAu,"[Element Au, Element Mn]",2,Mn1 Au1,0.0,-0.302307229224133,12.429139668223266
mp-1696,CdPd,"[Element Cd, Element Pd]",2,Cd2 Pd2,0.0,-0.39152519499999805,10.664881972117675
mp-1797,MnNi,"[Element Mn, Element Ni]",2,Mn1 Ni1,0.0,-0.32563896988505703,7.6289179910550615
mp-1652,ZnPd,"[Element Pd, Element Zn]",2,Zn2 Pd2,0.0,-0.576280689999999,10.192877347918426
mp-1251,VRh,"[Element Rh, Element V]",2,V2 Rh2,0.0,-0.40606390499999906,9.496702998925853
mp-22902,LiBi,"[Element Bi, Element Li]",2,Li1 Bi1,0.0,-0.415156415833333,7.527518229473442
mp-2017191,BaCa,"[Element Ba, Element Ca]",2,Ba1 Ca1,0.0,0.07795079249999701,2.684063620117292
mp-2556,TlSn,"[Element Sn, Element Tl]",2,Tl1 Sn1,0.0,0.135711829999998,9.262086880111475
mp-20055,NpSb,"[Element Np, Element Sb]",2,Np2 Sb2,0.0,-0.31446575937500004,10.756494445416786
mp-2018598,PuSb,"[Element Pu, Element Sb]",2,Pu1 Sb1,0.0,-0.47582275437499105,11.166662207634056
mp-21140,CeSb,"[Element Ce, Element Sb]",2,Ce1 Sb1,0.0,-1.213382214999995,7.761333114786558
mp-2213,FeNi,"[Element Fe, Element Ni]",2,Fe2 Ni2,0.0,-0.067223354999999,8.535536782713221
mp-20738,FeSi2,"[Element Fe, Element Si]",2,Fe1 Si2,0.0,-0.32531209124999905,5.075337680593534
mp-2510,ZrHg,"[Element Hg, Element Zr]",2,Zr2 Hg2,0.0,-0.16673357125000302,11.420002426160652
mp-20494,LaAs,"[Element As, Element La]",2,La1 As1,0.0,-1.477558753749996,6.884688263391021
mp-21468,PuIn,"[Element In, Element Pu]",2,Pu1 In1,0.0,-0.45595014437500203,11.511237387313495
mp-2034504,ZnCu,"[Element Cu, Element Zn]",2,Zn1 Cu1,0.0,-0.087976599999998,8.557678266633443
mp-2728,MnIr,"[Element Ir, Element Mn]",2,Mn1 Ir1,0.0,-0.15773197896551602,15.79371569526229
mp-2831,FePd,"[Element Fe, Element Pd]",2,Fe2 Pd2,0.0,-0.063690459999999,9.808478545574463
mp-2260,FePt,"[Element Fe, Element Pt]",2,Fe1 Pt1,0.0,-0.231995889999999,14.981159977848371
mp-238,MnPd,"[Element Mn, Element Pd]",2,Mn2 Pd2,0.0,-0.199720318965517,8.897919578609027
mp-20034,CaPb,"[Element Ca, Element Pb]",2,Ca2 Pb2,0.0,-0.520882229999998,6.975407029671377
mp-20394,EuPb,"[Element Eu, Element Pb]",2,Eu2 Pb2,0.0,-0.505665372500001,9.24481026180999
mp-2901864,SrMg,"[Element Mg, Element Sr]",2,Sr2 Mg2,0.0,-0.006859907500000001,2.582707799335304
mp-2678,VPt,"[Element Pt, Element V]",2,V2 Pt2,0.0,-0.550341079999999,14.544249862464369
mp-29727,Ta4O,"[Element O, Element Ta]",2,Ta4 O1,0.0,-0.7072170788666651,15.624655926778711
mp-2030206,InBi,"[Element Bi, Element In]",2,In2 Bi2,0.0,-0.022999999999996003,9.020920077004977
mp-20130,Pu3Al,"[Element Al, Element Pu]",2,Pu3 Al1,0.0,0.19264780328123202,14.875824699596228
mp-21098,UPb,"[Element Pb, Element U]",2,U1 Pb1,0.0,0.342935679999996,13.423731995496881
mp-22924,NaBi,"[Element Bi, Element Na]",2,Na1 Bi1,0.0,-0.381193682500001,6.825293767530593
mp-2583,TiRh,"[Element Rh, Element Ti]",2,Ti2 Rh2,0.0,-0.7413721266666661,8.488259808163635
mp-2767,TiGa,"[Element Ga, Element Ti]",2,Ti2 Ga2,0.0,-0.47163571541666605,6.318919501192045
mp-2685,HgPd,"[Element Hg, Element Pd]",2,Hg2 Pd2,0.0,-0.166715511250002,14.41030685485461
mp-2541,SmTl,"[Element Sm, Element Tl]",2,Sm2 Tl2,0.0,-0.37951780416667,10.433298235774801
mp-3217104,Yb2Te3,"[Element Te, Element Yb]",2,Yb2 Te3,0.1067,1.439537214,0.18940052715462102
mp-2313,MgIn,"[Element In, Element Mg]",2,Mg1 In1,0.0,-0.07601274583333101,5.102373667337499
mp-32652,Mo3N2,"[Element Mo, Element N]",2,Mo3 N2,0.0,0.134825473999998,7.4309196135667674
mp-429,ZnNi,"[Element Ni, Element Zn]",2,Zn2 Ni2,0.0,-0.254970534999999,8.906568762336324
mp-522,CuAu,"[Element Au, Element Cu]",2,Cu2 Au2,0.0,-0.048137494999999,14.86263662404068
mp-568748,Fe2B,"[Element B, Element Fe]",2,Fe2 B1,0.0,0.066110730277777,6.646477472904643
mp-672265,Cu3Pd,"[Element Cu, Element Pd]",2,Cu21 Pd7,0.0,-0.099534913571428,9.96902571091
mp-771,MnAl,"[Element Al, Element Mn]",2,Mn2 Al2,0.0,-0.272285743965517,5.071908127930998
mp-554055,HoS,"[Element Ho, Element S]",2,Ho2 S2,0.0,-1.440070361406249,1.582812135086972
mp-554355,CaF2,"[Element Ca, Element F]",2,Ca1 F2,5.1414,-3.98200302,3.050517132008025
mp-34260,ZrF4,"[Element F, Element Zr]",2,Zr1 F4,4.358900000000001,-3.894550459999999,0.7919624286957291
mp-985825,Al3Cu,"[Element Al, Element Cu]",2,Al3 Cu1,0.0,-0.103018489999999,4.136764462174224
mp-971631,GaP,"[Element Ga, Element P]",2,Ga1 P1,0.0,0.06474404101190201,4.839357879830287
mp-601848,Fe11Co5,"[Element Co, Element Fe]",2,Fe11 Co5,0.0,-0.049183250625,8.262363605796118
mp-570199,Ti3Pd5,"[Element Pd, Element Ti]",2,Ti3 Pd5,0.0,-0.6267247837499951,9.105693784733388
mp-640079,Mn3Au,"[Element Au, Element Mn]",2,Mn9 Au3,0.0,0.155351247255746,9.942927093067624
mp-758104,Mn11Pd21,"[Element Mn, Element Pd]",2,Mn11 Pd21,0.0,-0.22531005147629102,9.84325726028333
mp-894,ZnPt,"[Element Pt, Element Zn]",2,Zn2 Pt2,0.0,-0.5652836399999991,15.229981029964447
mp-949,CoPt,"[Element Co, Element Pt]",2,Co2 Pt2,0.0,-0.073157964999999,15.790161995450742
mp-985281,CsIr,"[Element Cs, Element Ir]",2,Cs1 Ir1,0.0,1.557296019999995,9.638881834088052
mp-634965,NbO,"[Element Nb, Element O]",2,Nb1 O1,0.0,-1.4636550225000011,5.450529809536891
mp-636095,Zr3Cd2,"[Element Cd, Element Zr]",2,Zr3 Cd2,0.0,1.14968747,5.030390237955574
mp-432,NbRu,"[Element Nb, Element Ru]",2,Nb1 Ru1,0.0,-0.19814378750000103,10.086651386414253
mp-635471,CeBi,"[Element Bi, Element Ce]",2,Ce1 Bi1,0.0,-1.014357542500008,9.190592773143344
mp-510436,InPd3,"[Element In, Element Pd]",2,In1 Pd3,0.0,-0.46623298499999705,10.876045535659843
mp-601820,Fe3Co,"[Element Co, Element Fe]",2,Fe3 Co1,0.0,-0.041613642499999,8.21480064690456
mp-641526,Fe13Co3,"[Element Co, Element Fe]",2,Fe13 Co3,0.0,-0.027467104999999003,8.128461329822313
mp-7754,Si2Ru,"[Element Ru, Element Si]",2,Si2 Ru1,0.0,-0.43430304375000106,5.962762948946892
mp-581833,RbN3,"[Element N, Element Rb]",2,Rb1 N3,3.7529,-0.120868283125,2.708918543885487
mp-623,HgPt,"[Element Hg, Element Pt]",2,Hg1 Pt1,0.0,0.038799462500008,18.021971241043683
mp-945,NiPt,"[Element Ni, Element Pt]",2,Ni2 Pt2,0.0,-0.095115924999998,16.036278150174454
mp-988939,AlAs,"[Element Al, Element As]",2,Al1 As1,0.0,-0.0017720312500000002,4.263957747543094
mp-999542,MnFe3,"[Element Fe, Element Mn]",2,Mn1 Fe3,0.0,0.051220863017242005,8.028968187258098
mp-998945,TiNi,"[Element Ni, Element Ti]",2,Ti1 Ni1,0.0,-0.32921405666666603,6.601175128775467
mp-995196,CO3,"[Element C, Element O]",2,C1 O3,0.0,1.747311735,3.01989713421928
mp-1182404,BaO10,"[Element Ba, Element O]",2,Ba2 O20,0.167499999999999,-0.560377962727272,2.952646039269092
mp-20196,NbTe4,"[Element Nb, Element Te]",2,Nb2 Te8,0.0,-0.6568609253333301,6.576833954786297
mp-600006,SiO2,"[Element O, Element Si]",2,Si20 O40,5.523499999999999,-3.238678885166666,1.976614882480916
mp-22817,TaTe4,"[Element Ta, Element Te]",2,Ta2 Te8,0.0,-0.585981959799998,7.5348984586197165
mp-1179236,SrO10,"[Element O, Element Sr]",2,Sr2 O20,0.0,-0.5358227445454541,2.231334748597283
mp-1078815,NbSe4,"[Element Nb, Element Se]",2,Nb2 Se8,0.0,-0.583899034249998,5.91170075737713
mp-1182183,CaO10,"[Element Ca, Element O]",2,Ca2 O20,0.0,-0.524267737272727,2.126432633932467
mp-1182382,CaO10,"[Element Ca, Element O]",2,Ca2 O20,0.0,-0.5515857118181821,2.512920777574513
mp-1179224,SrO10,"[Element O, Element Sr]",2,Sr2 O20,0.0,-0.5382002636363631,2.719336375075666
mp-1182511,BaO10,"[Element Ba, Element O]",2,Ba2 O20,0.0,-0.5344890927272731,2.476528589771376
mp-1182576,BaO10,"[Element Ba, Element O]",2,Ba2 O20,0.0,-0.6015697763636351,2.833911329973461
mp-560754,SiO2,"[Element O, Element Si]",2,Si16 O32,1.359999999999999,-2.738191954374999,2.383614099773126
mp-1103883,ErGa6,"[Element Er, Element Ga]",2,Er2 Ga12,0.0,-0.32652995261904605,7.50336222832473
mp-636291,PuGa6,"[Element Ga, Element Pu]",2,Pu2 Ga12,0.0,-0.273104150535719,8.237892834891127
mp-1104008,NdGa6,"[Element Ga, Element Nd]",2,Nd2 Ga12,0.0,-0.39437106321428506,6.795203970466348
mp-1104639,YbGa6,"[Element Ga, Element Yb]",2,Yb2 Ga12,0.0,-0.306435860714285,7.636210829056737
mp-1104838,GdGa6,"[Element Ga, Element Gd]",2,Gd2 Ga12,0.0,-0.32389673642856903,7.169765986925086
mp-1104451,SmGa6,"[Element Ga, Element Sm]",2,Sm2 Ga12,0.0,-0.38372105142857105,7.013488396432425
mp-711,CeGa6,"[Element Ce, Element Ga]",2,Ce2 Ga12,0.0,-0.36660620428571405,6.728064756981282
mp-1104534,DyGa6,"[Element Dy, Element Ga]",2,Dy2 Ga12,0.0,-0.350630604285713,7.359972401010095
mp-1103824,TmGa6,"[Element Ga, Element Tm]",2,Tm2 Ga12,0.0,-0.31690052928571505,7.554334083318464
mp-1104070,PrGa6,"[Element Ga, Element Pr]",2,Pr2 Ga12,0.0,-0.394295900238093,6.702772300412378
mp-644739,LaGa6,"[Element Ga, Element La]",2,La2 Ga12,0.0,-0.414350037857143,6.545744582427899
mp-21296,PtPb4,"[Element Pb, Element Pt]",2,Pt2 Pb8,0.0,-0.16461350999999202,12.30037850077302
mp-2374583,SiO2,"[Element O, Element Si]",2,Si16 O32,5.0006,-3.1131829675000002,2.6312563843426213
mp-30681,YGa6,"[Element Ga, Element Y]",2,Y2 Ga12,0.0,-0.304411769285714,6.3890917342848494
mp-1103872,HoGa6,"[Element Ga, Element Ho]",2,Ho2 Ga12,0.0,-0.291427004999999,7.41518076348522
mp-638038,SiO2,"[Element O, Element Si]",2,Si8 O16,0.0,-2.020682101666666,1.995227412426783
mp-1104458,TbGa6,"[Element Ga, Element Tb]",2,Tb2 Ga12,0.0,-0.36131348499999805,7.278670221266772
mp-1080372,CeSe2,"[Element Ce, Element Se]",2,Ce16 Se32,0.178599999999999,-1.334325900520832,3.390015987317486
mp-557017,SiO2,"[Element O, Element Si]",2,Si16 O32,2.5295,-2.746140747083333,2.430151028602173
mp-556564,SiO2,"[Element O, Element Si]",2,Si16 O32,0.30200000000000005,-2.1828311075,2.55223940865596
mp-1202778,K3Cd16,"[Element Cd, Element K]",2,K6 Cd32,0.0,-0.11623813059210401,6.539562183247084
mp-600076,SiO2,"[Element O, Element Si]",2,Si40 O80,5.5245,-3.239017493250001,1.870328201584651
mp-1079182,AlPt3,"[Element Al, Element Pt]",2,Al2 Pt6,0.0,-0.739600528749988,16.84067881414494
mp-10162,La3Si2,"[Element La, Element Si]",2,La6 Si4,0.0,-0.7094216589999971,5.564201661362896
mp-1078996,Nb3Si2,"[Element Nb, Element Si]",2,Nb6 Si4,0.0,-0.686334926,6.940999945785698
mp-11393,Nb3Ga2,"[Element Ga, Element Nb]",2,Nb6 Ga4,0.0,-0.45153545299999903,8.2353274062764
mp-1079007,Ce3Si2,"[Element Ce, Element Si]",2,Ce6 Si4,0.0,-0.6493514650000001,6.112645107564601
mp-1103522,Ga5W2,"[Element Ga, Element W]",2,Ga10 W4,0.0,0.058192304642858,10.322606789408939
mp-1105078,Hf3In4,"[Element Hf, Element In]",2,Hf6 In8,0.0,-0.12038806542857301,9.897754931814532
mp-1018852,OsN2,"[Element N, Element Os]",2,Os2 N4,0.0,0.9246226366666691,13.860013424313719
mp-1079269,SiPt3,"[Element Pt, Element Si]",2,Si2 Pt6,0.0,-0.519316705000001,16.862822953971847
mp-1078957,Ta3Be2,"[Element Be, Element Ta]",2,Ta6 Be4,0.0,-0.173273956399998,13.199328114196867
mp-1079937,Pr3Si2,"[Element Pr, Element Si]",2,Pr6 Si4,0.0,-0.5727084449999971,5.8507380268565665
mp-11288,Ca3Hg2,"[Element Ca, Element Hg]",2,Ca6 Hg4,0.0,-0.505499445000001,5.71004313290671
mp-1182870,AlPt3,"[Element Al, Element Pt]",2,Al4 Pt12,0.0,-0.5689207268749921,16.311184212790767
mp-1079377,Si2W3,"[Element Si, Element W]",2,Si4 W6,0.0,0.058121388999995006,13.790785846491135
mp-1079053,B2Mo3,"[Element B, Element Mo]",2,B4 Mo6,0.0,-0.39616722200000204,9.023756881502456
mp-11272,Be2Nb3,"[Element Be, Element Nb]",2,Be4 Nb6,0.0,-0.134875928000002,6.846974142902572
mp-1080193,MoN2,"[Element Mo, Element N]",2,Mo2 N4,0.0,-0.11119962833333301,7.868039400752626
mp-1080493,Y3Au2,"[Element Au, Element Y]",2,Y6 Au4,0.0,-0.7708489620000021,8.696131347654156
mp-1087230,Si2Mo3,"[Element Mo, Element Si]",2,Si4 Mo6,0.0,-0.259978137428572,7.875763328844874
mp-1078666,GaPt3,"[Element Ga, Element Pt]",2,Ga2 Pt6,0.0,-0.43006518937499805,17.705133131759496
mp-1019055,ReN2,"[Element N, Element Re]",2,Re2 N4,0.0,0.46351181652777906,13.791537015392182
mp-1188425,NpB4,"[Element B, Element Np]",2,Np4 B16,0.0,-0.5731357017500011,9.151809922445947
mp-1079146,Th3Si2,"[Element Si, Element Th]",2,Th6 Si4,0.0,-0.6874808749999941,9.713109537281833
mp-1104441,CsN2,"[Element Cs, Element N]",2,Cs4 N8,0.0,0.42419121495210904,3.370116480199105
mp-1079895,Np3Si2,"[Element Np, Element Si]",2,Np6 Si4,0.0,0.025051243200005003,13.372245129066323
mp-1181673,GaPt3,"[Element Ga, Element Pt]",2,Ga4 Pt12,0.0,-0.31589215124999903,17.194438537315204
mp-1019082,RuN2,"[Element N, Element Ru]",2,Ru2 N4,0.0,0.6127364483333311,8.176676572614147
mp-1080146,Pu3Si2,"[Element Pu, Element Si]",2,Pu6 Si4,0.0,-0.554874431500002,12.297699635707028
mp-1105563,GdB4,"[Element B, Element Gd]",2,Gd4 B16,0.0,-0.6437220695000001,6.461498003588117
mp-1203655,SiO2,"[Element O, Element Si]",2,Si48 O96,5.4771,-3.242059416041667,1.663022778423727
mp-12543,Dy3Pd2,"[Element Dy, Element Pd]",2,Dy6 Pd4,0.0,-0.761640371999999,9.831913032071451
mp-20405,V2Ga5,"[Element Ga, Element V]",2,V4 Ga10,0.0,-0.26941850142857104,7.101412015285514
mp-1207024,Zr3Si2,"[Element Si, Element Zr]",2,Zr6 Si4,0.0,-0.932346501,5.846818394263246
mp-1271121,CoF3,"[Element Co, Element F]",2,Co2 F6,1.638199999999999,-2.14013472,3.475764043011478
mp-13415,Ta3B2,"[Element B, Element Ta]",2,Ta6 B4,0.0,-0.722262897399997,14.879375512526478
mp-20433,Ti3In4,"[Element In, Element Ti]",2,Ti6 In8,0.0,-0.02579807095238,6.707321932253525
mp-1239172,Mo5O14,"[Element Mo, Element O]",2,Mo40 O112,0.0,-1.923448484473683,4.311687005503326
mp-1632,NdB4,"[Element B, Element Nd]",2,Nd4 B16,0.0,-0.6316373780000001,5.766651545493071