material_id,formula_pretty,elements,nelements,composition,band_gap,formation_energy_per_atom,density
mp-1094551,Mg3Sb,"[Element Mg, Element Sb]",2,Mg3 Sb1,0.0,-0.159191108749999,3.49755858862851
mp-1095016,CaMg2,"[Element Ca, Element Mg]",2,Ca1 Mg2,0.0,-0.043884739999999006,1.750187136830431
mp-1094961,Mg3Al,"[Element Al, Element Mg]",2,Mg3 Al1,0.0,0.03952205625,2.021071305231785
mp-1094220,Hf3Mg,"[Element Hf, Element Mg]",2,Hf3 Mg1,0.047099999999999004,0.08607279625000101,10.630004126505535
mp-1094735,Ca3Mg,"[Element Ca, Element Mg]",2,Ca3 Mg1,0.0,0.020163821249999003,1.623643985277736
mp-1100764,Ni3Ag,"[Element Ag, Element Ni]",2,Ni3 Ag1,0.0,0.23321139333333202,9.43403601969119
mp-1079812,B9N,"[Element B, Element N]",2,B9 N1,0.0,2.244238885541667,0.21322970201285202
mp-1079997,VPt8,"[Element Pt, Element V]",2,V1 Pt8,0.0,-0.260165278888888,19.8156218744095
mp-1094248,YSn3,"[Element Sn, Element Y]",2,Y1 Sn3,0.0,-0.381274653749999,7.052478568432163
mp-1094293,Sr3Mg,"[Element Mg, Element Sr]",2,Sr3 Mg1,0.0,0.05573917958333201,2.632441606275551
mp-1094320,SrMg3,"[Element Mg, Element Sr]",2,Sr1 Mg3,0.0,-0.008191132613635,2.357187636488295
mp-1103837,HoZn12,"[Element Ho, Element Zn]",2,Ho1 Zn12,0.0,-0.17836564884615302,8.06307190895671
mp-1104067,TiBe12,"[Element Be, Element Ti]",2,Ti1 Be12,0.0,-0.147714827948718,2.319566069161335
mp-1105296,SrGe3,"[Element Ge, Element Sr]",2,Sr4 Ge12,0.0,-0.329222265625,5.455740630590126
mp-1104222,YFe12,"[Element Fe, Element Y]",2,Y1 Fe12,0.0,0.0039046853846160003,7.487720892831424
mp-11493,LuPb2,"[Element Lu, Element Pb]",2,Lu1 Pb2,0.0,-0.142462025555553,11.65246186994964
mp-1214857,AuCl4,"[Element Au, Element Cl]",2,Au2 Cl8,0.0019000000000000002,-0.21840214599999902,1.3322420976106781
mp-1271940,Co3O4,"[Element Co, Element O]",2,Co6 O8,0.0,-1.200440123571428,5.449735925574735
mp-1890,BMo,"[Element B, Element Mo]",2,B4 Mo4,0.0,-0.5239632375000021,8.595609663773478
mp-1365799,SiO2,"[Element O, Element Si]",2,Si16 O32,5.793,-3.06835828375,0.571900833649414
mp-13955,SmSi2,"[Element Si, Element Sm]",2,Sm2 Si4,0.0,-0.6247261366666661,5.659710221502357
mp-18567,CaZn11,"[Element Ca, Element Zn]",2,Ca2 Zn22,0.0,-0.16496461416666702,6.772756053530909
mp-19761,LaGe2,"[Element Ge, Element La]",2,La2 Ge4,0.0,-0.759550894583332,6.447172399329149
mp-21055,CeGe2,"[Element Ce, Element Ge]",2,Ce2 Ge4,0.0,-0.5731381266666651,6.940300280320133
mp-21105,PuSi2,"[Element Pu, Element Si]",2,Pu2 Si4,0.0,-0.575234832916668,8.828264908884176
mp-21298,NpSi2,"[Element Np, Element Si]",2,Np2 Si4,0.0,-0.48395127791666903,8.729409024071698
mp-2067,ThGa2,"[Element Ga, Element Th]",2,Th2 Ga4,0.0,-0.7449632983333311,9.272008233835717
mp-22216,In2S3,"[Element In, Element S]",2,In16 S24,0.8856,-0.743551954687498,4.499472952568761
mp-2129,NdGe2,"[Element Ge, Element Nd]",2,Nd2 Ge4,0.0,-0.669946055833333,6.980285836293542
mp-23160,ThBr4,"[Element Br, Element Th]",2,Th2 Br8,2.6793,-2.161331396999992,5.587369638387772
mp-2611,BaGe2,"[Element Ba, Element Ge]",2,Ba2 Ge4,0.0,-0.48057167666666706,5.506374065031701
mp-27291,PaCl4,"[Element Cl, Element Pa]",2,Pa2 Cl8,0.155399999999999,-2.149853655000001,4.590785048457223
mp-23215,ThCl4,"[Element Cl, Element Th]",2,Th2 Cl8,3.6672000000000002,-2.409598440999997,4.484770649012651
mp-23161,NpCl4,"[Element Cl, Element Np]",2,Np2 Cl8,0.0,-2.046392533749997,4.6827591422738255
mp-1974638,HfMn,"[Element Hf, Element Mn]",2,Hf12 Mn12,0.0,-0.15561213765804802,11.262057584207062
mp-23235,UCl4,"[Element Cl, Element U]",2,U2 Cl8,0.0,-2.074629794999998,4.7461361133341065
mp-25332,FeO2,"[Element Fe, Element O]",2,Fe2 O4,0.0,-1.255422851666666,4.226653564210319
mp-2062,LaSi2,"[Element La, Element Si]",2,La2 Si4,0.0,-0.7082368199999981,4.943667458328538
mp-27191,Zr9S2,"[Element S, Element Zr]",2,Zr36 S8,0.0,-0.7009283793181821,6.32391132544513
mp-21192,GdSi2,"[Element Gd, Element Si]",2,Gd2 Si4,0.0,-0.544628723333333,6.079106096129809
mp-27474,PaBr4,"[Element Br, Element Pa]",2,Pa2 Br8,0.182199999999999,-1.857753990000003,5.708665755385875
mp-20800,ZrIn2,"[Element In, Element Zr]",2,Zr4 In8,0.0,-0.39832570916666504,8.00402210109885
mp-2398,ScSn2,"[Element Sc, Element Sn]",2,Sc4 Sn8,0.0,-0.47380913500000005,6.641478338506865
mp-30065,V13O16,"[Element O, Element V]",2,V26 O32,0.0,-1.653997173965518,3.324379532660804
mp-390,TiO2,"[Element O, Element Ti]",2,Ti2 O4,2.0586,-3.5080554519444442,3.856139057916947
mp-27954,CuN3,"[Element Cu, Element N]",2,Cu4 N12,1.6279,0.293795457499999,2.784706971094685
mp-30802,NdZn11,"[Element Nd, Element Zn]",2,Nd2 Zn22,0.0,-0.218186348124999,7.70759089225626
mp-28893,ReB,"[Element B, Element Re]",2,Re8 B8,0.0,-0.0035027812499950003,11.783842620520963
mp-29537,Cl2O,"[Element Cl, Element O]",2,Cl8 O4,1.0529,0.0034790158333320004,2.165042316951475
mp-33234,RbO2,"[Element O, Element Rb]",2,Rb2 O4,0.0,0.06283282249999901,2.268269115074595
mp-2831205,Cu2S,"[Element Cu, Element S]",2,Cu4 S2,0.0,-0.11657263468749901,5.658901154984195
mp-32780,AuCl,"[Element Au, Element Cl]",2,Au4 Cl4,1.674399999999999,-0.264202023750002,7.497045788439865
mp-294,UO3,"[Element O, Element U]",2,U8 O24,1.8855,-3.529985247812498,7.722332329691037
mp-554267,SiO2,"[Element O, Element Si]",2,Si16 O32,5.6328,-3.251188911666666,1.928351744994017
mp-553993,SiO2,"[Element O, Element Si]",2,Si16 O32,5.6424,-3.22619880375,1.5547126938986482
mp-555521,SiO2,"[Element O, Element Si]",2,Si32 O64,5.586699999999999,-3.25731407375,1.6989712398893282
mp-30682,ZrGa,"[Element Ga, Element Zr]",2,Zr4 Ga4,0.0,-0.730119922499998,6.956969242766296
mp-33104,Sm2O,"[Element O, Element Sm]",2,Sm4 O2,0.0,-2.074061101666668,7.975357339320386
mp-27953,Mo2N,"[Element Mo, Element N]",2,Mo4 N2,0.0,-0.36008341000000005,9.498285611281272
mp-27760,PrSi2,"[Element Pr, Element Si]",2,Pr2 Si4,0.0,-0.55063753222222,5.150599335000651
mp-31216,BaCd11,"[Element Ba, Element Cd]",2,Ba2 Cd22,0.0,-0.12608137708333,8.045874147453542
mp-2844,ThSi2,"[Element Si, Element Th]",2,Th2 Si4,0.0,-0.6115161466666681,7.776630160064254
mp-583684,EuCd11,"[Element Cd, Element Eu]",2,Eu2 Cd22,0.0,-0.156274763333333,8.380048365224411
mp-555700,SiO2,"[Element O, Element Si]",2,Si16 O32,5.5201,-3.25534563375,1.8506983036436861
mp-571191,LaZn11,"[Element La, Element Zn]",2,La2 Zn22,0.0,-0.260410125416666,7.53779691464066
mp-600078,SiO2,"[Element O, Element Si]",2,Si18 O36,5.623200000000001,-3.243577437962964,1.629928632658534
mp-639705,SiO2,"[Element O, Element Si]",2,Si20 O40,5.5245,-3.241795045666668,1.626131035717536
mp-640370,CeZn11,"[Element Ce, Element Zn]",2,Ce2 Zn22,0.0,-0.197829122499999,7.629669120469879
mp-684638,Al2S3,"[Element Al, Element S]",2,Al16 S24,2.0693,-1.234006491687499,2.687685744024842
mp-672388,ThPb,"[Element Pb, Element Th]",2,Th2 Pb2,0.0,-0.37699731386364005,11.783382942933656
mp-568148,PrZn11,"[Element Pr, Element Zn]",2,Pr2 Zn22,0.0,-0.22007836430555602,7.643625668626084
mp-642659,V2H,"[Element H, Element V]",2,V8 H4,0.0,-0.170647656249999,5.983682747636155
mp-684732,Co2S3,"[Element Co, Element S]",2,Co16 S24,0.0,-0.46939558168750106,4.717072073132108
mp-685120,Al2Se3,"[Element Al, Element Se]",2,Al16 Se24,1.124599999999999,-0.9808548856874991,4.280844654738498
mp-567814,Pu3Zn22,"[Element Pu, Element Zn]",2,Pu6 Zn44,0.0,-0.10856865864999801,8.646263174371606
mp-569954,SrCd11,"[Element Cd, Element Sr]",2,Sr2 Cd22,0.0,-0.09121042750000001,7.908938198954321
mp-571407,UPb,"[Element Pb, Element U]",2,U2 Pb2,0.0,0.332449279999991,13.627835161693913
mp-567705,TiAl2,"[Element Al, Element Ti]",2,Ti4 Al8,0.0,-0.47273808805555406,3.591973231143247
mp-571342,TiGa2,"[Element Ga, Element Ti]",2,Ti4 Ga8,0.0,-0.44140580027777704,6.732766444860586
mp-623108,Eu4Ir,"[Element Eu, Element Ir]",2,Eu8 Ir2,0.0,-0.321069992999997,7.5491320337387595
mp-570140,AuBr,"[Element Au, Element Br]",2,Au4 Br4,1.9716,-0.38517572000000305,7.805345249695944
mp-567471,HgI2,"[Element Hg, Element I]",2,Hg8 I16,1.3495,-0.564044371041667,5.86424144590255
mp-600016,SiO2,"[Element O, Element Si]",2,Si16 O32,5.652,-3.256354547916666,1.646493187158979
mp-567914,TeI4,"[Element I, Element Te]",2,Te8 I32,1.5019,-0.418217916583333,4.642549949653939
mp-862,CaSi2,"[Element Ca, Element Si]",2,Ca2 Si4,0.0,-0.39796676166666706,2.609058357820129
mp-9830,NbP,"[Element Nb, Element P]",2,Nb2 P2,0.0,-0.386600152321427,6.34757754191367
mp-8490,LiGe,"[Element Ge, Element Li]",2,Li6 Ge6,0.0,-0.247402372708333,4.239777320608211
mp-698212,Ce3Zn22,"[Element Ce, Element Zn]",2,Ce6 Zn44,0.0,-0.25041740359999903,7.357486462190482
mp-714904,FeO2,"[Element Fe, Element O]",2,Fe4 O8,0.0,-1.1429497,3.962788777841586
mp-697085,H2O,"[Element H, Element O]",2,H8 O4,5.2923,-1.259543708333333,1.639998997223998
mp-714969,MoO2,"[Element Mo, Element O]",2,Mo4 O8,0.0,-1.792568755833333,4.634928777999212
mp-714960,VO2,"[Element O, Element V]",2,V4 O8,0.0,-2.318890088333334,3.740697124504668
mp-755690,NbO2,"[Element Nb, Element O]",2,Nb2 O4,0.0,-2.817624642916667,5.70466850890858
mp-7284,USi2,"[Element Si, Element U]",2,U2 Si4,0.0,-0.275697478333337,9.325555427192796
mp-755071,SnO2,"[Element O, Element Sn]",2,Sn2 O4,1.307599999999999,-2.020034801666666,6.105005004894499
mp-723629,NaI,"[Element I, Element Na]",2,Na2 I2,3.0807,-1.303050943189655,3.034206921084319
mp-936219,K2O,"[Element K, Element O]",2,K4 O2,0.110999999999999,-1.194421846499999,1.7791752852849272
mp-884,NdSi2,"[Element Nd, Element Si]",2,Nd2 Si4,0.0,-0.637268477499998,5.318406212228456
mp-754403,ZrO2,"[Element O, Element Zr]",2,Zr2 O4,3.4482,-3.765431895,4.74826681390781
mp-7832,BW,"[Element B, Element W]",2,B4 W4,0.0,-0.35971011500000205,15.586997529592988
mp-7790,Ti2N,"[Element N, Element Ti]",2,Ti4 N2,0.0,-1.433421929027777,4.808924824196139
mp-1188303,Sn4Rh,"[Element Rh, Element Sn]",2,Sn16 Rh4,0.0,-0.270286399499999,7.994721634092384
mp-11054,RbSn,"[Element Rb, Element Sn]",2,Rb16 Sn16,0.877899999999999,-0.278649864374999,3.9990722505575063
mp-1201508,KSi,"[Element K, Element Si]",2,K16 Si16,1.5811000000000002,-0.12251075718749901,1.849937231404449
mp-11051,NaSn,"[Element Na, Element Sn]",2,Na16 Sn16,0.34289999999999904,-0.265617810625,3.978693238379946
mp-1200287,RbSi,"[Element Rb, Element Si]",2,Rb16 Si16,1.159,0.007798132031251,2.804403553138623
mp-11055,CsSn,"[Element Cs, Element Sn]",2,Cs16 Sn16,0.8722999999999991,-0.40618286687499905,4.417548723066742
mp-1573,Sn2Pd,"[Element Pd, Element Sn]",2,Sn16 Pd8,0.0,-0.327521249583336,8.676381906230544
mp-21525,RbPb,"[Element Pb, Element Rb]",2,Rb16 Pb16,0.5688,-0.217142026562501,5.484144672996493
mp-1195785,NaP7,"[Element Na, Element P]",2,Na8 P56,1.7429000000000001,-0.190906175572916,2.091801571441959
mp-1214946,AgO2,"[Element Ag, Element O]",2,Ag4 O8,0.0,-0.006271814722221001,5.39287848915329
mp-1267,NaC,"[Element C, Element Na]",2,Na8 C8,3.165899999999999,0.23146421359913702,1.598476392086297
mp-1199056,RbGe,"[Element Ge, Element Rb]",2,Rb16 Ge16,1.2867,-0.17855517249999803,3.7696701458228743
mp-1197181,Zn3As2,"[Element As, Element Zn]",2,Zn48 As32,0.0,-0.07566203762500001,5.406937898960378
mp-1201758,KGe,"[Element Ge, Element K]",2,K16 Ge16,1.0097,-0.19274312581249903,2.9800315532034682
mp-1212538,Na2Sn,"[Element Na, Element Sn]",2,Na32 Sn16,0.057799999999999005,-0.13394811372221901,2.899228867372123
mp-21526,KPb,"[Element K, Element Pb]",2,K16 Pb16,0.5708000000000001,-0.362189247187497,5.107315531405211
mp-1201949,B5H4,"[Element B, Element H]",2,B80 H64,2.8736,0.24617387452230502,0.5406060124006681
mp-243,KC,"[Element C, Element K]",2,K8 C8,3.274899999999999,0.24005843439062602,1.576313240970871
mp-1080859,CeSe2,"[Element Ce, Element Se]",2,Ce16 Se32,0.7833,-1.409390959270832,3.401904747516087
mp-1199496,Cd3As2,"[Element As, Element Cd]",2,Cd48 As32,0.0,-0.007790568249999001,6.007703871874354
mp-669566,ZnAu3,"[Element Au, Element Zn]",2,Zn8 Au24,0.0,-0.15800165999999602,16.367968237714354
mp-622213,GeS2,"[Element Ge, Element S]",2,Ge16 S32,2.1393,-0.647878320416666,2.977745286068089
mp-31277,Sn4Ir,"[Element Ir, Element Sn]",2,Sn16 Ir4,0.0,-0.159459893500002,9.541995105021705
mp-866482,CsSi,"[Element Cs, Element Si]",2,Cs16 Si16,1.211199999999999,-0.138510518124999,3.5261607068916963
mp-555165,SiO2,"[Element O, Element Si]",2,Si16 O32,5.7614,-3.249857261875,2.515504492241322
mp-30792,NaPb,"[Element Na, Element Pb]",2,Na16 Pb16,0.15660000000000002,-0.269950954999998,6.136807904283582
mp-30140,BeI2,"[Element Be, Element I]",2,Be16 I32,4.1443,-0.836349655000001,4.090085735556491
mp-571406,Ga2Pt,"[Element Ga, Element Pt]",2,Ga32 Pt16,0.0,-0.5718638647916661,11.429002657041268
mp-568240,Zn3As2,"[Element As, Element Zn]",2,Zn48 As32,0.17929999999999902,-0.142193604749999,5.422020781169646
mp-27687,LiP7,"[Element Li, Element P]",2,Li8 P56,1.688199999999999,-0.19070094749999902,2.189873519980373
mp-542374,KSn,"[Element K, Element Sn]",2,K16 Sn16,0.7321000000000001,-0.280997838624998,3.411914083401286
mp-27161,ZnI2,"[Element I, Element Zn]",2,Zn16 I32,2.9118,-0.8721765856249991,4.378271017384577
mp-29629,Be3P2,"[Element Be, Element P]",2,Be48 P32,0.145299999999999,-0.147852862232142,2.214963750376371
mp-570634,Cd3As2,"[Element As, Element Cd]",2,Cd48 As32,0.0,-0.065839916874999,5.978593408912383
mp-570974,BeCl2,"[Element Be, Element Cl]",2,Be16 Cl32,6.5139,-1.846174582499999,1.957694379530497
mp-697135,H2S,"[Element H, Element S]",2,H16 S8,3.5201000000000002,-0.12477690968749901,0.9103993392461751
mp-866501,CsGe,"[Element Cs, Element Ge]",2,Cs16 Ge16,0.9827999999999991,-0.185674510765087,4.364923240339349
mp-583213,HgI2,"[Element Hg, Element I]",2,Hg16 I32,1.5513,-0.564590044375002,5.778101571096585
mp-647579,ZnBr2,"[Element Br, Element Zn]",2,Zn16 Br32,3.2214,-1.267659339375001,3.959272109419705
mp-985707,CoSn3,"[Element Co, Element Sn]",2,Co8 Sn24,0.0,-0.049153361874999,8.145906384524958
mp-557546,Fe2O3,"[Element Fe, Element O]",2,Fe12 O18,0.0,-1.179294367666666,4.134636603515602
mp-1228882,As7Rh12,"[Element As, Element Rh]",2,As7 Rh12,0.0,-0.47403235785088105,10.228042464816548
mp-1187792,Tl2S,"[Element S, Element Tl]",2,Tl18 S9,0.9579999999999991,-0.5035857691666711,7.962689215621874
mp-776922,Rb2O,"[Element O, Element Rb]",2,Rb6 O3,0.19210000000000002,-1.130593261111111,2.9755505188420552
mp-849083,Cr2S3,"[Element Cr, Element S]",2,Cr8 S12,0.0,-0.965671559499999,3.958269979702386
mp-1189328,TiNi,"[Element Ni, Element Ti]",2,Ti9 Ni9,0.0,-0.373489810555554,6.486379750563485
mp-716814,Fe2O3,"[Element Fe, Element O]",2,Fe12 O18,0.0,-1.204043357666666,4.273710495453526
mp-773884,Bi19O30,"[Element Bi, Element O]",2,Bi38 O60,0.0,-1.567449311836736,8.742647906218949
mp-571558,HgBr2,"[Element Br, Element Hg]",2,Hg3 Br6,1.6827,-0.785284009722224,5.884107458696467
mp-776952,Na2O,"[Element Na, Element O]",2,Na6 O3,1.5089000000000001,-1.346220134808429,2.505816977035073
mp-998929,K2O,"[Element K, Element O]",2,K6 O3,1.853399999999999,-1.174483579833332,2.671810555265089
mp-571195,ZnTe,"[Element Te, Element Zn]",2,Zn3 Te3,1.069,-0.680473905,5.424327600796479
mp-21688,Fe7S8,"[Element Fe, Element S]",2,Fe21 S24,0.0,-0.6097666619999991,5.347088959315148
mp-971683,C3N4,"[Element C, Element N]",2,C9 N12,2.216599999999999,0.12167648535714301,2.336940872720853
mp-531687,Nd6F17,"[Element F, Element Nd]",2,Nd18 F51,0.697499999999999,-4.286477665386473,6.247807516690822
mp-1192099,BO3,"[Element B, Element O]",2,B6 O18,0.0,-0.9133218147916671,1.710761213556373
mp-1194842,Mo12P,"[Element Mo, Element P]",2,Mo24 P2,0.0,0.399842796694136,9.174108659333507
mp-31503,Mg9Sn5,"[Element Mg, Element Sn]",2,Mg18 Sn10,0.0,-0.15584564249999802,4.032359478284585
mp-1001594,C4O3,"[Element C, Element O]",2,C48 O36,2.4613,-0.899292471666667,1.655879043528273
mp-1237770,Mo12P,"[Element Mo, Element P]",2,Mo24 P2,0.0,0.36908451515567303,9.228839322447868
mp-759526,Bi2O3,"[Element Bi, Element O]",2,Bi26 O39,1.823499999999999,-1.6081895374615391,8.907080725596586
mp-1219306,Si5C3,"[Element C, Element Si]",2,Si5 C3,0.7307,0.643749876723683,1.718849312696058
mp-1198800,Bi3Pd8,"[Element Bi, Element Pd]",2,Bi12 Pd32,0.0,-0.22993832909090503,12.211309198643615
mp-1247924,Al2Te3,"[Element Al, Element Te]",2,Al4 Te6,0.682999999999999,-0.47936126450000205,4.337159732553229
mp-556516,Tl2S,"[Element S, Element Tl]",2,Tl18 S9,0.7668,-0.505116372129634,7.5042539664458054
mp-667,Tl2S,"[Element S, Element Tl]",2,Tl18 S9,0.8912000000000001,-0.5040204191666731,7.990500577138402
mp-1228988,AlAg3,"[Element Ag, Element Al]",2,Al5 Ag15,0.0,-0.072474530250002,8.683933897840129
mp-680057,Sb3Pd8,"[Element Pd, Element Sb]",2,Sb12 Pd32,0.0,-0.44748152022727206,10.74228119084268
mp-757565,Fe41O56,"[Element Fe, Element O]",2,Fe41 O56,0.0,-1.571110422886596,4.882269890328527
mp-1247927,Al2Se3,"[Element Al, Element Se]",2,Al4 Se6,0.9578000000000001,-0.9286022904375001,3.51364094636235
mp-505363,P3Pd7,"[Element P, Element Pd]",2,P6 Pd14,0.0,-0.472955544892855,9.184453837200806
mp-32742,U16N25,"[Element N, Element U]",2,U16 N25,0.0,-1.7421022480792692,11.413289736354198
mp-849081,Cr2S3,"[Element Cr, Element S]",2,Cr4 S6,0.0,-0.693736492499998,3.957811866080439
mp-1224199,Ho4Co3,"[Element Co, Element Ho]",2,Ho12 Co9,0.0,-0.167989117142853,9.596200997407449
mp-1219339,Si13Rh20,"[Element Rh, Element Si]",2,Si13 Rh20,0.0,-0.788048140378784,8.880960579587397
mp-1222465,Lu4Co3,"[Element Co, Element Lu]",2,Lu12 Co9,0.0,-0.244287117619046,10.706247922591862
mp-1209041,Si9Ni25,"[Element Ni, Element Si]",2,Si9 Ni25,0.0,-0.43807746720588103,7.9002969112285495
mp-1225806,Gd4Co3,"[Element Co, Element Gd]",2,Gd12 Co9,0.0,-0.123765395714285,8.85658348412904
mp-1225451,Dy4Co3,"[Element Co, Element Dy]",2,Dy12 Co9,0.0,-0.148964698571421,9.306519760397094
mp-1217743,Tb4Co3,"[Element Co, Element Tb]",2,Tb12 Co9,0.0,-0.137213794761907,9.03601537342453
mp-1182789,FeCl3,"[Element Cl, Element Fe]",2,Fe24 Cl72,0.042100000000000005,-1.163926166874999,2.644786965984538
mp-2716,TiNi,"[Element Ni, Element Ti]",2,Ti9 Ni9,0.0,-0.371091617222219,6.641919489348608
mp-15843,Ge9Pd25,"[Element Ge, Element Pd]",2,Ge9 Pd25,0.0,-0.45306283102941003,10.857877989877315
mp-567550,In3Au7,"[Element Au, Element In]",2,In18 Au42,0.0,-0.17184914075757302,14.479183148679716
mp-1225765,Er4Co3,"[Element Co, Element Er]",2,Er12 Co9,0.0,-0.19186403999999802,9.88236773477911
mp-1217007,Tm4Co3,"[Element Co, Element Tm]",2,Tm12 Co9,0.0,-0.21136025285714802,10.091698548304473
mp-32644,Pr5Cl12,"[Element Cl, Element Pr]",2,Pr15 Cl36,0.0,-2.350916519901959,4.154322077592039
mp-1216292,Y4Co3,"[Element Co, Element Y]",2,Y12 Co9,0.0,-0.11384766761904701,5.818281940838687
mp-672264,WN18,"[Element N, Element W]",2,W2 N36,1.7919,0.573437991940787,2.523509560613247
mp-1103688,Nd3Pt4,"[Element Nd, Element Pt]",2,Nd6 Pt8,0.0,-1.085074297499996,12.88248565704355
mp-1104177,Pr3Pt2,"[Element Pr, Element Pt]",2,Pr9 Pt6,0.0,-0.8964886309999951,9.936480958277683
mp-1080320,CeSe2,"[Element Ce, Element Se]",2,Ce6 Se12,0.270099999999999,-1.582786499895832,3.782060763926345
mp-1102303,NaPu,"[Element Na, Element Pu]",2,Na6 Pu6,0.0,0.588801730890793,6.816864009430822
mp-1074405,Mg4Si3,"[Element Mg, Element Si]",2,Mg8 Si6,0.0,0.045157188571428,2.256902847672082
mp-1104206,Ho3Pd4,"[Element Ho, Element Pd]",2,Ho6 Pd8,0.0,-0.9825632921428561,10.846764521998495
mp-1078114,ReCl6,"[Element Cl, Element Re]",2,Re1 Cl6,0.0,-0.61409718392857,3.707192076663386
mp-1078195,SiI3,"[Element I, Element Si]",2,Si2 I6,2.9566,-0.656745092499998,3.774429609972908
mp-1103863,Ho3Pt4,"[Element Ho, Element Pt]",2,Ho6 Pt8,0.0,-1.361814543571418,15.059300907898365
mp-1103963,Lu3Pd4,"[Element Lu, Element Pd]",2,Lu6 Pd8,0.0,-1.0249786542857091,11.760469047996757
mp-1103985,Nd3Pt2,"[Element Nd, Element Pt]",2,Nd9 Pt6,0.0,-0.9329352878333321,10.29620353040411
mp-1104019,Y3Pd4,"[Element Pd, Element Y]",2,Y6 Pd8,0.0,-0.9350798664285741,7.962213764152168
mp-1104158,Pr3Rh2,"[Element Pr, Element Rh]",2,Pr9 Rh6,0.0,-0.573742584333331,8.037947334181766
mp-1101826,Ir3S8,"[Element Ir, Element S]",2,Ir3 S8,0.0,-0.421793603863637,7.518421497762374