material_id,formula_pretty,elements,nelements,composition,band_gap,formation_energy_per_atom,density
mp-19849,NpGa2,"[Element Ga, Element Np]",2,Np1 Ga2,0.0,-0.15449655791666803,10.027957254085342
mp-1861,Cu2Te,"[Element Cu, Element Te]",2,Cu4 Te2,0.0,0.08165582833333401,6.185852473961427
mp-1914,YGa2,"[Element Ga, Element Y]",2,Y1 Ga2,0.0,-0.649560048333333,6.059488004174083
mp-2057,DyB2,"[Element B, Element Dy]",2,Dy1 B2,0.0,-0.642656116666666,8.427080185244606
mp-1910,CeNi5,"[Element Ce, Element Ni]",2,Ce1 Ni5,0.0,-0.34413840833333004,8.970381571418269
mp-2025,HfBe5,"[Element Be, Element Hf]",2,Hf1 Be5,0.0,-0.2293877075,6.101176010276861
mp-1882,CaCu5,"[Element Ca, Element Cu]",2,Ca1 Cu5,0.0,-0.11010331000000001,6.7080430315084385
mp-20064,DyGa2,"[Element Dy, Element Ga]",2,Dy1 Ga2,0.0,-0.7667836949999981,8.10629631023794
mp-1994,HfB2,"[Element B, Element Hf]",2,Hf1 B2,0.0,-1.084847615000001,11.237731726114164
mp-2051,LaCu2,"[Element Cu, Element La]",2,La1 Cu2,0.0,-0.198986075,7.16196132938679
mp-20632,UGa2,"[Element Ga, Element U]",2,U1 Ga2,0.0,-0.20547436333333202,10.057143317716807
mp-20536,CoSn,"[Element Co, Element Sn]",2,Co3 Sn3,0.0,-0.09587967583333301,8.866618260115631
mp-2424,LaZn5,"[Element La, Element Zn]",2,La1 Zn5,0.0,-0.340760943333333,7.21666881448875
mp-21200,PuGa2,"[Element Ga, Element Pu]",2,Pu1 Ga2,0.0,-0.567075982916667,10.523930486680056
mp-21305,GdNi5,"[Element Gd, Element Ni]",2,Gd1 Ni5,0.0,-0.31015598833333,9.336581111662051
mp-2359,NdPt5,"[Element Nd, Element Pt]",2,Nd1 Pt5,0.0,-0.6934569879166661,16.793006474472676
mp-2152,YNi5,"[Element Ni, Element Y]",2,Y1 Ni5,0.0,-0.311606001666666,8.002759446554021
mp-220,ThNi2,"[Element Ni, Element Th]",2,Th1 Ni2,0.0,-0.43362542999998904,10.695908759903572
mp-21260,FeSn,"[Element Fe, Element Sn]",2,Fe3 Sn3,0.0,-0.002724932499996,7.9029645115114615
mp-2324,PrCd2,"[Element Cd, Element Pr]",2,Pr1 Cd2,0.0,-0.395212403888886,7.768985824389615
mp-2410,SrAg5,"[Element Ag, Element Sr]",2,Sr1 Ag5,0.0,-0.17491912583333402,8.005697189220452
mp-21168,EuGa2,"[Element Eu, Element Ga]",2,Eu1 Ga2,0.0,-0.6354865083333341,6.731376978803614
mp-20965,GdCd2,"[Element Cd, Element Gd]",2,Gd1 Cd2,0.0,-0.36718781333333,8.539036467754773
mp-2281971,GaCu2,"[Element Cu, Element Ga]",2,Ga1 Cu2,0.0,0.011448353273806,8.277808375454896
mp-22217,CePd5,"[Element Ce, Element Pd]",2,Ce1 Pd5,0.0,-0.516005744166662,10.011440919641865
mp-2145,ErSi2,"[Element Er, Element Si]",2,Er1 Si2,0.0,-0.5018988011111101,6.697257849413446
mp-2435,HoCo5,"[Element Co, Element Ho]",2,Ho1 Co5,0.0,-0.094829354166664,9.361794704030265
mp-2209,CeGa2,"[Element Ce, Element Ga]",2,Ce1 Ga2,0.0,-0.723751536666668,6.837745059892232
mp-2267,HoB2,"[Element B, Element Ho]",2,Ho1 B2,0.0,-0.672561126666667,8.675207823665414
mp-21315,PuNi5,"[Element Ni, Element Pu]",2,Pu1 Ni5,0.0,-0.128845209791663,11.198901409620015
mp-2252,ScB2,"[Element B, Element Sc]",2,Sc1 B2,0.0,-0.8867963533333341,3.649688167418437
mp-227,SmCu5,"[Element Cu, Element Sm]",2,Sm1 Cu5,0.0,-0.18046810166666602,8.73082436670585
mp-22311,EuNi5,"[Element Eu, Element Ni]",2,Eu1 Ni5,0.0,-0.110666337499999,8.993676398489596
mp-22478,FeGe,"[Element Fe, Element Ge]",2,Fe3 Ge3,0.0,-0.12214553083333302,7.189595781433942
mp-2170,Li2Pt,"[Element Li, Element Pt]",2,Li2 Pt1,0.0,-0.5886431711111111,8.710751847153164
mp-2251,Li3N,"[Element Li, Element N]",2,Li3 N1,0.9840000000000001,-0.48250142218750003,1.329645114763006
mp-2355,MoN,"[Element Mo, Element N]",2,Mo2 N2,0.0,1.314623584999999,7.402420423371611
mp-2370,PrNi5,"[Element Ni, Element Pr]",2,Pr1 Ni5,0.0,-0.25854633194444504,8.71221094659352
mp-2422,ErGa2,"[Element Er, Element Ga]",2,Er1 Ga2,0.0,-0.72364276111111,8.418623670777812
mp-2436,EuZn5,"[Element Eu, Element Zn]",2,Eu1 Zn5,0.0,-0.25087550083333204,7.5280474222799825
mp-2317,LaNi5,"[Element La, Element Ni]",2,La1 Ni5,0.0,-0.28170988749999804,8.595871425295357
mp-2841,ScSi2,"[Element Sc, Element Si]",2,Sc1 Si2,0.0,-0.36072350833333405,3.305652996948565
mp-2568,YSi2,"[Element Si, Element Y]",2,Y1 Si2,0.0,-0.5361982633333351,4.197304272790452
mp-2606,BaPd5,"[Element Ba, Element Pd]",2,Ba1 Pd5,0.0,-0.33909857666666304,9.507435140294417
mp-30364,BaAu5,"[Element Au, Element Ba]",2,Ba1 Au5,0.0,-0.44300406166667206,13.86913909444186
mp-2684,TbGa2,"[Element Ga, Element Tb]",2,Tb1 Ga2,0.0,-0.7846199033333341,7.91476207445926
mp-2645,YbNi5,"[Element Ni, Element Yb]",2,Yb1 Ni5,0.0,-0.327261972499999,10.013276849895155
mp-2613,LaCu5,"[Element Cu, Element La]",2,La1 Cu5,0.0,-0.141133305833333,8.172189347541556
mp-30469,TlBi2,"[Element Bi, Element Tl]",2,Tl1 Bi2,0.0,0.015296066666669002,10.789453028743688
mp-2726,SrCu5,"[Element Cu, Element Sr]",2,Sr1 Cu5,0.0,-0.035421975,7.156253975356174
mp-30497,TbCd2,"[Element Cd, Element Tb]",2,Tb1 Cd2,0.0,-0.291713982222216,8.720508920745115
mp-30585,HoCu5,"[Element Cu, Element Ho]",2,Ho1 Cu5,0.0,-0.204240175833331,9.294387428276604
mp-2740,ErCo5,"[Element Co, Element Er]",2,Er1 Co5,0.0,-0.103211511666666,9.362230695362024
mp-2812,HoFe5,"[Element Fe, Element Ho]",2,Ho1 Fe5,0.0,-0.051345850833334004,8.308382170232166
mp-30506,CeHg2,"[Element Ce, Element Hg]",2,Ce1 Hg2,0.0,-0.499326008333336,11.930516252795623
mp-30507,CeIr5,"[Element Ce, Element Ir]",2,Ce1 Ir5,0.0,-0.365940813333336,17.486208347896795
mp-2551,DyCo5,"[Element Co, Element Dy]",2,Dy1 Co5,0.0,-0.089085241944444,9.172468335927203
mp-2797,YCu5,"[Element Cu, Element Y]",2,Y1 Cu5,0.0,-0.192909463333334,7.723802651891214
mp-2524,NdGa2,"[Element Ga, Element Nd]",2,Nd1 Ga2,0.0,-0.814071495833331,6.987867635401937
mp-2462,PrCu5,"[Element Cu, Element Pr]",2,Pr1 Cu5,0.0,-0.14531633361111002,8.336001126563204
mp-2553,HfBe2,"[Element Be, Element Hf]",2,Hf1 Be2,0.0,-0.170745116666664,8.32128130994708
mp-2837,PrCo5,"[Element Co, Element Pr]",2,Pr1 Co5,0.0,0.022624767300295,8.342489694260687
mp-30481,CaPt5,"[Element Ca, Element Pt]",2,Ca1 Pt5,0.0,-0.600580696666668,15.447909761433532
mp-2689,ThFe5,"[Element Fe, Element Th]",2,Th1 Fe5,0.0,-0.054154229999998006,9.291867002953472
mp-30363,BaAu2,"[Element Au, Element Ba]",2,Ba1 Au2,0.0,-0.740450749999997,10.232367246803905
mp-28228,Ag7Te4,"[Element Ag, Element Te]",2,Ag35 Te20,0.0,0.141600593113637,7.333233137867104
mp-30495,SmCd2,"[Element Cd, Element Sm]",2,Sm1 Cd2,0.0,-0.308374655,8.297884501775236
mp-2827,YCo5,"[Element Co, Element Y]",2,Y1 Co5,0.0,-0.07648426833333301,7.647614378048947
mp-28861,CsC8,"[Element C, Element Cs]",2,Cs3 C24,0.0,-0.040660426628352,2.966220856500112
mp-30620,DyRh5,"[Element Dy, Element Rh]",2,Dy1 Rh5,0.0,-0.294621025277776,11.265999354640336
mp-374,CrB2,"[Element B, Element Cr]",2,Cr1 B2,0.0,-0.262860444444445,5.3164020273198265
mp-30725,YHg2,"[Element Hg, Element Y]",2,Y1 Hg2,0.0,-0.474424555000003,11.29289531536233
mp-30801,NdZn5,"[Element Nd, Element Zn]",2,Nd1 Zn5,0.0,-0.305460852916667,7.546415174947482
mp-3216283,YbIn2,"[Element In, Element Yb]",2,Yb2 In4,0.0,-0.45827512000000004,9.1672575412224
mp-312,ThIr5,"[Element Ir, Element Th]",2,Th1 Ir5,0.0,-0.47705074166666805,18.65861963090616
mp-30753,LaPd5,"[Element La, Element Pd]",2,La1 Pd5,0.0,-0.5971245724999981,10.049626398625197
mp-30885,YZn5,"[Element Y, Element Zn]",2,Y1 Zn5,0.0,-0.332843220833332,6.946454165704095
mp-394,CeZn5,"[Element Ce, Element Zn]",2,Ce1 Zn5,0.0,-0.26003228499999703,7.453111931760404
mp-450,NbB2,"[Element B, Element Nb]",2,Nb1 B2,0.0,-0.7052428549999991,6.78238557743704
mp-542568,EuAg5,"[Element Ag, Element Eu]",2,Eu1 Ag5,0.0,-0.173007971666668,9.001541131324979
mp-532105,SiO2,"[Element O, Element Si]",2,Si54 O108,5.559,-3.255479562098765,1.612837049436663
mp-442,RhPb,"[Element Pb, Element Rh]",2,Rh3 Pb3,0.0,-0.136691916666663,12.232935556446929
mp-545665,WO3,"[Element O, Element W]",2,W3 O9,1.1401,-2.179940107916668,6.392982410369374
mp-567891,NdAg2,"[Element Ag, Element Nd]",2,Nd1 Ag2,0.0,-0.275642392499998,8.553980631094154
mp-425,GdB2,"[Element B, Element Gd]",2,Gd1 B2,0.0,-0.504459632666671,7.971495896015732
mp-542777,CePt5,"[Element Ce, Element Pt]",2,Ce1 Pt5,0.0,-0.7909169800000011,16.80175542490851
mp-510098,EuAu5,"[Element Au, Element Eu]",2,Eu1 Au5,0.0,-0.42999690250000605,14.928193101745169
mp-30808,TbNi5,"[Element Ni, Element Tb]",2,Tb1 Ni5,0.0,-0.32419588444444203,9.480174800323836
mp-567406,SmZn5,"[Element Sm, Element Zn]",2,Sm1 Zn5,0.0,-0.302269682499999,7.793847586630709
mp-568006,DyFe5,"[Element Dy, Element Fe]",2,Dy1 Fe5,0.0,-0.043887316944443006,8.221363256852008
mp-309,ThAg2,"[Element Ag, Element Th]",2,Th1 Ag2,0.0,-0.16585972444444003,10.814879772173972
mp-30627,DyZn5,"[Element Dy, Element Zn]",2,Dy1 Zn5,0.0,-0.33201823166666605,8.221569260051467
mp-477,SmGa2,"[Element Ga, Element Sm]",2,Sm1 Ga2,0.0,-0.8062252700000011,7.375350177338167
mp-569264,NdIr5,"[Element Ir, Element Nd]",2,Nd1 Ir5,0.0,-0.32368150180555705,17.042311452078977
mp-568503,Fe2C,"[Element C, Element Fe]",2,Fe2 C1,0.0,1.1430112283333331,6.5611157373428615
mp-569927,ErZn5,"[Element Er, Element Zn]",2,Er1 Zn5,0.0,-0.314687268055555,8.392345793465664
mp-568654,PrAg2,"[Element Ag, Element Pr]",2,Pr1 Ag2,0.0,-0.24988673999999902,8.282693238224418
mp-569,NdCo5,"[Element Co, Element Nd]",2,Nd1 Co5,0.0,0.00035995354166800005,8.481168923096693
mp-582464,NdGd2,"[Element Gd, Element Nd]",2,Nd1 Gd2,0.0,1.654705084166669,11.357201621195623
mp-569376,FeB2,"[Element B, Element Fe]",2,Fe1 B2,0.0,-0.051458889444444,5.896205533213423
mp-570832,SrPt5,"[Element Pt, Element Sr]",2,Sr1 Pt5,0.0,-0.6072094099999951,15.716187276420182
mp-579718,Th2Cu,"[Element Cu, Element Th]",2,Th2 Cu1,0.0,0.49003468666667005,11.57421832272957
mp-580,PuB2,"[Element B, Element Pu]",2,Pu1 B2,0.0,-0.47805504729167503,12.801079932728388
mp-672250,Ti3Ga,"[Element Ga, Element Ti]",2,Ti3 Ga1,0.0,0.209760145624999,4.977464025295357
mp-571353,BaSn5,"[Element Ba, Element Sn]",2,Ba1 Sn5,0.0,-0.269230147499996,6.602585177974563
mp-680434,Na26Cd141,"[Element Cd, Element Na]",2,Na26 Cd141,0.0,-0.038878617100968,6.827834141102784
mp-570454,TaN,"[Element N, Element Ta]",2,Ta3 N3,0.0,-0.051546408041668004,12.460932850267316
mp-571172,In2Bi,"[Element Bi, Element In]",2,In2 Bi1,0.0,0.042666876666662,8.070541908631121
mp-669,ThAl2,"[Element Al, Element Th]",2,Th1 Al2,0.0,-0.509280889999999,6.7569047780133715
mp-570749,YbHg2,"[Element Hg, Element Yb]",2,Yb1 Hg2,0.0,-0.40563138333333304,13.80463138389651
mp-570673,ScNi5,"[Element Ni, Element Sc]",2,Sc1 Ni5,0.0,-0.283420650833331,7.5048252706726455
mp-680222,SiO2,"[Element O, Element Si]",2,Si48 O96,5.5951,-3.235629854652778,1.069709403077981
mp-636253,GdCu5,"[Element Cu, Element Gd]",2,Gd1 Cu5,0.0,-0.165827425000001,8.945796878900655
mp-638,SrZn5,"[Element Sr, Element Zn]",2,Sr1 Zn5,0.0,-0.22022309249999902,6.291555757796518
mp-571283,GdRh5,"[Element Gd, Element Rh]",2,Gd1 Rh5,0.0,-0.303516111388892,10.724218542661243
mp-585,MnB2,"[Element B, Element Mn]",2,Mn1 B2,0.0,-0.307147019827586,5.301405077278925
mp-568258,Fe2Ge,"[Element Fe, Element Ge]",2,Fe2 Ge1,0.0,0.222736961666666,7.762428107271648
mp-571292,ZnI2,"[Element I, Element Zn]",2,Zn1 I2,0.0,0.21790024999999902,4.692838459191908
mp-668,PrGa2,"[Element Ga, Element Pr]",2,Pr1 Ga2,0.0,-0.8078835105555551,6.770145157227046
mp-7751,PuPt5,"[Element Pt, Element Pu]",2,Pu1 Pt5,0.0,-0.44096217479166205,18.463911157104345
mp-800,TmB2,"[Element B, Element Tm]",2,Tm1 B2,0.0,-0.734535728333334,9.151026453971742
mp-7496,ThZn2,"[Element Th, Element Zn]",2,Th1 Zn2,0.0,-0.296578929999995,9.36450076829556
mp-981214,SrMg5,"[Element Mg, Element Sr]",2,Sr1 Mg5,0.0,-0.035247420833332,2.082456447319364
mp-811,BaPt5,"[Element Ba, Element Pt]",2,Ba1 Pt5,0.0,-0.473208788333333,15.797411037494062
mp-865732,LuCd2,"[Element Cd, Element Lu]",2,Lu1 Cd2,0.0,-0.31381917888888705,9.567500411139717
mp-853,ErNi5,"[Element Er, Element Ni]",2,Er1 Ni5,0.0,-0.336448439999999,9.795455693792139
mp-965,TbB2,"[Element B, Element Tb]",2,Tb1 B2,0.0,-0.608675188333334,8.127889177008635
mp-764,CeCo5,"[Element Ce, Element Co]",2,Ce1 Co5,0.0,-0.08812799,8.703225126231649
mp-772,TmSi2,"[Element Si, Element Tm]",2,Tm1 Si2,0.0,-0.51598325833333,6.7210687058014695
mp-985578,AlFe,"[Element Al, Element Fe]",2,Al1 Fe1,0.0,0.46102108,4.614313908264683
mp-761,CeCu5,"[Element Ce, Element Cu]",2,Ce1 Cu5,0.0,-0.10422689500000101,8.418579543383201
mp-849075,NiS2,"[Element Ni, Element S]",2,Ni1 S2,0.0,0.5124721683333341,4.825050603286978
mp-7954,Nd2O3,"[Element Nd, Element O]",2,Nd2 O3,1.5703,-3.566498133999999,5.275942423690727
mp-944,AlB2,"[Element Al, Element B]",2,Al1 B2,0.0,-0.050413121666666005,3.192131293916214
mp-7701,BaSi2,"[Element Ba, Element Si]",2,Ba1 Si2,0.0,-0.24482134833333802,4.247292126468181
mp-728,Li2Pd,"[Element Li, Element Pd]",2,Li2 Pd1,0.0,-0.35966722777777704,4.867689604273123
mp-7497,ThSi2,"[Element Si, Element Th]",2,Th1 Si2,0.0,-0.629868999999999,7.823468969372171
mp-774,CaNi5,"[Element Ca, Element Ni]",2,Ca1 Ni5,0.0,-0.11096844999999801,6.9089872204002205
mp-680599,VCo3,"[Element Co, Element V]",2,V6 Co18,0.0,1.091738425416664,4.381026797788816
mp-960,B2Mo,"[Element B, Element Mo]",2,B2 Mo1,0.0,-0.292536185,7.328282782684588
mp-980,USi2,"[Element Si, Element U]",2,U1 Si2,0.0,-0.388105375000004,8.894127306628562
mp-981212,TmMg2,"[Element Mg, Element Tm]",2,Tm1 Mg2,0.0,-0.041643210000001006,4.77158352596991
mp-866189,CeCd2,"[Element Cd, Element Ce]",2,Ce1 Cd2,0.0,-0.33158148333333304,8.190899536328361
mp-973935,OsN2,"[Element N, Element Os]",2,Os1 N2,0.0,0.251375380833332,10.735367499009188
mp-975644,BeF2,"[Element Be, Element F]",2,Be1 F2,0.0,-1.032930025,2.851514121345697
mp-763,MgB2,"[Element B, Element Mg]",2,Mg1 B2,0.0,-0.17590466000000002,2.666306002140567
mp-809,ThCo5,"[Element Co, Element Th]",2,Th1 Co5,0.0,-0.045426178333334004,10.328632108106728
mp-8602,SiO2,"[Element O, Element Si]",2,Si34 O68,5.5344,-3.256519518137255,1.674728014961816
mp-999496,Na3N,"[Element N, Element Na]",2,Na3 N1,0.0,0.163268525161639,1.661950525957205
mp-992,CaGa2,"[Element Ca, Element Ga]",2,Ca1 Ga2,0.0,-0.57802759,4.337844381642744
mp-993,DySi2,"[Element Dy, Element Si]",2,Dy1 Si2,0.0,-0.5600758185,6.328051901070081
mp-985579,AlFe2,"[Element Al, Element Fe]",2,Al1 Fe2,0.0,-0.141337556666666,6.093348966420929
mp-1201887,SiO2,"[Element O, Element Si]",2,Si24 O48,5.5322,-3.254697512638888,1.652519546570401
mp-530027,Si6O13,"[Element O, Element Si]",2,Si24 O52,2.0846,-2.7600695460526303,1.726402115694977
mp-1190533,MgO,"[Element Mg, Element O]",2,Mg12 O12,3.0171,-2.925217040416666,2.368749037998974
mp-10045,Ba5As3,"[Element As, Element Ba]",2,Ba10 As6,0.0,-1.0053669578125,4.94499398511111
mp-1105548,Pr5Bi3,"[Element Bi, Element Pr]",2,Pr10 Bi6,0.0,-0.9270309897916671,8.350313471544423
mp-1101992,Ta2Ni,"[Element Ni, Element Ta]",2,Ta8 Ni4,0.0,0.11067010594444,14.32780773183761
mp-10736,Ba3N,"[Element Ba, Element N]",2,Ba6 N2,0.0,-0.40036508875000204,3.780205630447207
mp-1105965,Er5Tl3,"[Element Er, Element Tl]",2,Er10 Tl6,0.0,-0.289004222500003,10.766720755400005
mp-1105551,Tb5Rh3,"[Element Rh, Element Tb]",2,Tb10 Rh6,0.0,-0.693205706666664,9.88419130210389
mp-1105843,Ce5Sn3,"[Element Ce, Element Sn]",2,Ce10 Sn6,0.0,-0.48125554124999703,6.743210623811259
mp-10047,Ca5As3,"[Element As, Element Ca]",2,Ca10 As6,0.0,-1.302326325312499,3.332915257419928
mp-1080638,CeSe2,"[Element Ce, Element Se]",2,Ce24 Se48,0.9861999999999991,-1.396164453229166,1.709789174689479
mp-1105989,Lu5Ge3,"[Element Ge, Element Lu]",2,Lu10 Ge6,0.0,-0.794301137916667,9.964155625472948
mp-1102370,Ta2Co,"[Element Co, Element Ta]",2,Ta8 Co4,0.0,0.234310463444444,14.534157680101218
mp-1014286,C3N,"[Element C, Element N]",2,C6 N2,0.0,3.801161269062501,2.170177034293078
mp-10203,Ta5Si3,"[Element Si, Element Ta]",2,Ta10 Si6,0.0,-0.540820263958337,12.670975043785024
mp-1105871,Lu5Pb3,"[Element Lu, Element Pb]",2,Lu10 Pb6,0.0,-0.46379617979166604,11.225110937028436
mp-1105552,Nb5Ga3,"[Element Ga, Element Nb]",2,Nb10 Ga6,0.0,-0.327316272499999,8.022865335964202
mp-1105543,Tb5Pt3,"[Element Pt, Element Tb]",2,Tb10 Pt6,0.0,-1.091471659999996,11.998387063120186
mp-1105962,La5Bi3,"[Element Bi, Element La]",2,La10 Bi6,0.0,-0.9919510381250021,7.9074810847569434
mp-1105825,Tb5Pb3,"[Element Pb, Element Tb]",2,Tb10 Pb6,0.0,-0.540934363541662,9.949397099282695
mp-1105908,La5Sn3,"[Element La, Element Sn]",2,La10 Sn6,0.0,-0.8387206787500001,6.270264540071024
mp-1102936,Ta2Fe,"[Element Fe, Element Ta]",2,Ta8 Fe4,0.0,0.28954423844444505,14.059064999789781
mp-1105869,Tm5Pt3,"[Element Pt, Element Tm]",2,Tm10 Pt6,0.0,-1.156017414999993,13.147594226489277
mp-1101229,V2F9,"[Element F, Element V]",2,V4 F18,0.059499999999999005,-2.8608297154545452,2.670827847972339
mp-1105737,Dy5Ge3,"[Element Dy, Element Ge]",2,Dy10 Ge6,0.0,-0.920331306249998,8.620430919718071
mp-1106024,Eu5As3,"[Element As, Element Eu]",2,Eu10 As6,0.0,-1.096196096562501,7.04184024654539
mp-1105949,Eu5Sb3,"[Element Eu, Element Sb]",2,Eu10 Sb6,0.0,-1.073759988125001,6.88364212508628
mp-1105600,Lu5Ir3,"[Element Ir, Element Lu]",2,Lu10 Ir6,0.0,-0.8844803641666671,13.725738396762527
mp-1105838,Nd5Bi3,"[Element Bi, Element Nd]",2,Nd10 Bi6,0.0,-0.7712238321875,8.627388784733458
mp-1105896,La5Pb3,"[Element La, Element Pb]",2,La10 Pb6,0.0,-0.552160892499998,7.6862884529994
mp-1106281,Th5Pb3,"[Element Pb, Element Th]",2,Th10 Pb6,0.0,-0.377389581406248,11.419753746818305
mp-1106032,Ho5Ge3,"[Element Ge, Element Ho]",2,Ho10 Ge6,0.0,-0.7890066449999971,8.87777946019274
mp-1188086,Ho5Ir3,"[Element Ho, Element Ir]",2,Ho10 Ir6,0.0,-0.789536573124996,12.663074497076801
mp-1178745,Y5Pt3,"[Element Pt, Element Y]",2,Y10 Pt6,0.0,-1.059424733749999,8.929298768608591
mp-11368,Er5Ga3,"[Element Er, Element Ga]",2,Er10 Ga6,0.0,-0.569938282708335,8.622632770538509
mp-1106258,Lu5Sn3,"[Element Lu, Element Sn]",2,Lu10 Sn6,0.0,-0.7756010979166701,9.774374983644455
mp-1106322,Lu5Tl3,"[Element Lu, Element Tl]",2,Lu10 Tl6,0.0,-0.25885140916666904,11.189550749087864
mp-1106169,Zr5Ga3,"[Element Ga, Element Zr]",2,Zr10 Ga6,0.0,-0.589608318125002,6.7564220325586195
mp-1188160,Dy5Ir3,"[Element Dy, Element Ir]",2,Dy10 Ir6,0.0,-0.7680770441666631,12.323791774012225
mp-11801,K3N,"[Element K, Element N]",2,K6 N2,0.0,0.370162723416665,1.163572971709018
mp-1181553,Dy5Tl3,"[Element Dy, Element Tl]",2,Dy10 Tl6,0.0,-0.44194371124999704,10.256064223653864
mp-1178983,Ta5Al3,"[Element Al, Element Ta]",2,Ta10 Al6,0.0,-0.18126332913332902,11.812720273650802
mp-1188257,Yb5Si3,"[Element Si, Element Yb]",2,Yb10 Si6,0.0,-0.8018100556250011,8.673615039202732
mp-1178742,Y5Al3,"[Element Al, Element Y]",2,Y10 Al6,0.0,-0.32316800177083305,3.96035223072177
mp-1106314,Th5Bi3,"[Element Bi, Element Th]",2,Th10 Bi6,0.0,-0.413399355624998,11.474368109373003
mp-11854,Er5Ge3,"[Element Er, Element Ge]",2,Er10 Ge6,0.0,-0.8024571637500001,9.14455402860346
mp-1106152,Nd5Pb3,"[Element Nd, Element Pb]",2,Nd10 Pb6,0.0,-0.7216996840625001,8.47508285217647
mp-1106357,Tb5Sn3,"[Element Sn, Element Tb]",2,Tb10 Sn6,0.0,-0.7198736172916671,8.297536240965815
mp-1188292,Y5Pb3,"[Element Pb, Element Y]",2,Y10 Pb6,0.0,-0.741988528124998,7.524724171737244
mp-1106373,Sm5Si3,"[Element Si, Element Sm]",2,Sm10 Si6,0.0,-0.6997544675,6.5019619428612945
mp-1106084,La5Sb3,"[Element La, Element Sb]",2,La10 Sb6,0.0,-1.181580199374998,6.623133962601221
mp-1106145,Ce5Si3,"[Element Ce, Element Si]",2,Ce10 Si6,0.0,-0.5696147031250011,6.436501603756595
mp-1179514,Sm5Pb3,"[Element Pb, Element Sm]",2,Sm10 Pb6,0.0,-0.7269374081250031,9.077605186361655
mp-1182146,Ca5Pb3,"[Element Ca, Element Pb]",2,Ca10 Pb6,0.0,-0.521520381874998,5.12209798167
mp-1106250,Gd5Pb3,"[Element Gd, Element Pb]",2,Gd10 Pb6,0.0,-0.647988331249997,9.613890444462548
mp-11465,Mg5Hg3,"[Element Hg, Element Mg]",2,Mg10 Hg6,0.0,-0.19714389343750202,6.982842153963932
mp-1181055,Ho5Tl3,"[Element Ho, Element Tl]",2,Ho10 Tl6,0.0,-0.435837798124993,10.506886336178953
mp-1106365,Th5Pb4,"[Element Pb, Element Th]",2,Th10 Pb8,0.0,-0.5008256922222161,11.895039184961298
mp-1111,Mn5Si3,"[Element Mn, Element Si]",2,Mn10 Si6,0.0,-0.46220868530172504,5.894516796527532