material_id,formula_pretty,elements,nelements,composition,band_gap,formation_energy_per_atom,density
mp-2409,Ni5Sb2,"[Element Ni, Element Sb]",2,Ni10 Sb4,0.0,-0.12101837357142801,9.582923251291543
mp-22777,NaN3,"[Element N, Element Na]",2,Na1 N3,0.0,1.0460373834375,1.912068826194496
mp-2457,Tb2O3,"[Element O, Element Tb]",2,Tb6 O9,3.940699999999999,-3.957248751083333,8.71619040471529
mp-25207,V2O5,"[Element O, Element V]",2,V6 O15,1.672699999999999,-2.263890422857143,3.47125488279913
mp-2500,AlCu,"[Element Al, Element Cu]",2,Al5 Cu5,0.0,-0.24248409,5.511280106531164
mp-2512,AsPd5,"[Element As, Element Pd]",2,As2 Pd10,0.0,-0.269940265416664,11.07901789172406
mp-2717,Zr2Ni7,"[Element Ni, Element Zr]",2,Zr4 Ni14,0.0,-0.427306064444444,8.675918920983893
mp-23219,CuBr2,"[Element Br, Element Cu]",2,Cu1 Br2,0.0,-0.663808629999998,4.619400709185497
mp-2659,LiN3,"[Element Li, Element N]",2,Li1 N3,3.6364,-0.205821525729167,1.931723590704999
mp-27871,RhBr3,"[Element Br, Element Rh]",2,Rh2 Br6,1.2584,-0.8457965725000001,5.239712257895749
mp-27793,Nb2Se,"[Element Nb, Element Se]",2,Nb8 Se4,0.0,-0.598921481354165,7.710483235474518
mp-2733,Al8Mo3,"[Element Al, Element Mo]",2,Al8 Mo3,0.0,-0.38162391545454605,5.103490179411473
mp-27630,CrCl3,"[Element Cl, Element Cr]",2,Cr2 Cl6,0.14679999999999901,-1.4250044681249991,2.814324851685975
mp-27513,Sc7Cl10,"[Element Cl, Element Sc]",2,Sc7 Cl10,0.0,-1.892506550588236,2.659375899828121
mp-27678,Y2Cl3,"[Element Cl, Element Y]",2,Y4 Cl6,0.760699999999999,-2.092601786499999,3.5858297091018763
mp-2780,Fe3Se4,"[Element Fe, Element Se]",2,Fe3 Se4,0.0,-0.49778935562499904,7.002587263278897
mp-28704,Cr4As3,"[Element As, Element Cr]",2,Cr8 As6,0.0,-0.103979990357143,6.819700183957462
mp-27215,CrI2,"[Element Cr, Element I]",2,Cr1 I2,0.25680000000000003,-0.5573124699999991,4.469788261026912
mp-27194,SnI2,"[Element I, Element Sn]",2,Sn3 I6,1.7061000000000002,-0.7447498127777771,5.117978698029424
mp-2793,AuSe,"[Element Au, Element Se]",2,Au2 Se2,0.26279999999999903,-0.14021907453124502,9.172416104975438
mp-2751309,TmMn12,"[Element Mn, Element Tm]",2,Tm1 Mn12,0.0,-0.092649795676392,6.830141459381114
mp-27840,Cr3Se4,"[Element Cr, Element Se]",2,Cr3 Se4,0.0,-0.766725084196428,5.59391256769944
mp-27770,RhCl3,"[Element Cl, Element Rh]",2,Rh2 Cl6,1.521199999999999,-0.784634455624997,3.788441960880535
mp-27397,IrBr3,"[Element Br, Element Ir]",2,Ir2 Br6,1.5604,-0.708474681249999,6.516801717706128
mp-27455,YCl3,"[Element Cl, Element Y]",2,Y2 Cl6,4.9300999999999995,-2.531578373124999,2.537359519737013
mp-28034,Cu2P7,"[Element Cu, Element P]",2,Cu8 P28,0.8419999999999991,-0.13935082398148102,3.5860122621463812
mp-27258,P3Au2,"[Element Au, Element P]",2,P6 Au4,0.0,-0.16322673278571,8.438561505074777
mp-27708,BiI,"[Element Bi, Element I]",2,Bi8 I8,0.927,-0.482984493749999,6.448731841602279
mp-2760,Nb6C5,"[Element C, Element Nb]",2,Nb6 C5,0.0,-0.617065229090909,7.505664634704758
mp-27666,IrCl3,"[Element Cl, Element Ir]",2,Ir2 Cl6,1.897,-0.623958485624999,5.333238548718901
mp-29465,TaCl4,"[Element Cl, Element Ta]",2,Ta2 Cl8,1.2245,-1.792021997466666,4.104900219322986
mp-29841,Rh3S4,"[Element Rh, Element S]",2,Rh9 S12,0.0,-0.6062629511309511,6.486156807926365
mp-30568,Zn13Co,"[Element Co, Element Zn]",2,Zn13 Co1,0.0,-0.040924318214286,7.767907608338069
mp-28910,CrS2,"[Element Cr, Element S]",2,Cr2 S4,0.0,-0.8613659683333321,1.9042889810974821
mp-30021,K5Sb4,"[Element K, Element Sb]",2,K5 Sb4,0.0,-0.575929994305555,3.14668667976223
mp-30464,Bi2Pd5,"[Element Bi, Element Pd]",2,Bi4 Pd10,0.0,-0.250986444999999,12.437304575623353
mp-31002,Rb2Te5,"[Element Rb, Element Te]",2,Rb2 Te5,0.23650000000000002,-0.539628082619048,4.768517588518594
mp-30410,Mn2Au5,"[Element Au, Element Mn]",2,Mn2 Au5,0.0,-0.300842039852219,15.396313919322115
mp-31007,Tb5Br8,"[Element Br, Element Tb]",2,Tb5 Br8,0.0,-1.827995586410255,5.622559789145481
mp-31019,Al45Cr7,"[Element Al, Element Cr]",2,Al45 Cr7,0.0,-0.09345293211538401,3.314093856218589
mp-30985,Tb6Br7,"[Element Br, Element Tb]",2,Tb6 Br7,0.0,-1.572133685769228,6.432572878725146
mp-2925199,NaN3,"[Element N, Element Na]",2,Na1 N3,0.6758000000000001,0.7782254659375001,1.172110887489692
mp-30999,CuCl2,"[Element Cl, Element Cu]",2,Cu1 Cl2,0.0,-0.670025861666665,3.261091609729422
mp-28916,Mn3As2,"[Element As, Element Mn]",2,Mn6 As4,0.0,-0.153060894758621,7.18179307337454
mp-29831,TaCl5,"[Element Cl, Element Ta]",2,Ta6 Cl30,2.8257,-1.8545025495555572,3.469387390684242
mp-28879,Ca5P8,"[Element Ca, Element P]",2,Ca5 P8,1.1418,-1.057331754908424,2.539264062615659
mp-29055,KSb2,"[Element K, Element Sb]",2,K2 Sb4,0.21530000000000002,-0.39162036458333205,4.338160462908972
mp-29973,SrN,"[Element N, Element Sr]",2,Sr4 N4,0.0,-0.668827469375001,3.9187794179639583
mp-29554,WBr5,"[Element Br, Element W]",2,W6 Br30,0.0,-0.9120005633333331,4.493487940585521
mp-30952,GaCl3,"[Element Cl, Element Ga]",2,Ga2 Cl6,4.1775,-1.220234600625,2.384240544417417
mp-3216688,YbGa4,"[Element Ga, Element Yb]",2,Yb1 Ga4,0.0,-0.36098487499999904,7.760701175268448
mp-31467,Ga3Pd7,"[Element Ga, Element Pd]",2,Ga3 Pd7,0.0,-0.5882995559999981,10.776329911791938
mp-32679,Nb10C7,"[Element C, Element Nb]",2,Nb10 C7,0.0,-0.540557961176469,7.490359428794282
mp-32564,NdO3,"[Element Nd, Element O]",2,Nd2 O6,0.0,-1.943886155625,5.709835579175046
mp-3216667,Yb5Se7,"[Element Se, Element Yb]",2,Yb5 Se7,0.0,-2.100419919036459,8.008956419987264
mp-32795,Re3O8,"[Element O, Element Re]",2,Re3 O8,0.0,-1.8803163252272732,8.890289509115878
mp-31040,NbCl4,"[Element Cl, Element Nb]",2,Nb2 Cl8,1.0797,-1.412415387999999,2.944121327402491
mp-31404,Mg5Si6,"[Element Mg, Element Si]",2,Mg5 Si6,0.0,0.18631277409090902,2.406834552559059
mp-31049,NdO2,"[Element Nd, Element O]",2,Nd2 O4,3.4112,-3.1596579241666642,6.708597366830175
mp-32727,Y3Se4,"[Element Se, Element Y]",2,Y12 Se16,0.0,-2.135785200178572,5.142073305962432
mp-31485,Ga5Pd13,"[Element Ga, Element Pd]",2,Ga5 Pd13,0.0,-0.554598818333333,10.870177531394614
mp-32749,NdO3,"[Element Nd, Element O]",2,Nd2 O6,0.0,-2.128353246875,6.696109016746541
mp-542634,Ta2Te3,"[Element Ta, Element Te]",2,Ta4 Te6,0.0,-0.606275635933332,8.921291491144155
mp-542449,Sc5Cl8,"[Element Cl, Element Sc]",2,Sc5 Cl8,0.0,-1.973734355,2.644913665267386
mp-541404,VO2,"[Element O, Element V]",2,V4 O8,0.7584000000000001,-2.522468176666668,4.067600255193656
mp-551470,Tl2O,"[Element O, Element Tl]",2,Tl4 O2,0.5194000000000001,-0.814049282222227,9.872476803873909
mp-541637,Er4I5,"[Element Er, Element I]",2,Er4 I5,0.0,-1.136746772777777,6.990587250843553
mp-504759,MoF5,"[Element F, Element Mo]",2,Mo4 F20,0.9911000000000001,-2.631161137083333,3.7685714785923583
mp-510285,Ti11Se4,"[Element Se, Element Ti]",2,Ti33 Se12,0.0,-0.784794412180555,5.596597959411029
mp-540538,Ga4Fe3,"[Element Fe, Element Ga]",2,Ga12 Fe9,0.0,-0.17859897714285602,7.653588032200582
mp-545771,Cr3O8,"[Element Cr, Element O]",2,Cr3 O8,0.0,-1.557999771818182,3.238994587518396
mp-510438,InPt,"[Element In, Element Pt]",2,In5 Pt5,0.0,-0.5714708929999971,13.605391891214655
mp-542812,GaTe,"[Element Ga, Element Te]",2,Ga6 Te6,1.0066,-0.44299320083333205,5.154297046168311
mp-34150,SiO2,"[Element O, Element Si]",2,Si16 O32,0.921899999999999,-2.925857397291666,1.636679902657333
mp-510554,Nb12O29,"[Element Nb, Element O]",2,Nb12 O29,0.0,-3.038560369878048,4.352814068895341
mp-542454,Mo2As3,"[Element As, Element Mo]",2,Mo4 As6,0.0,-0.303616396499998,7.935286878073877
mp-541594,Sc8Te3,"[Element Sc, Element Te]",2,Sc32 Te12,0.0,-0.7760661538636361,4.673769288459787
mp-545796,Cr3O8,"[Element Cr, Element O]",2,Cr3 O8,0.0,-1.649623899999999,2.7968170128518013
mp-484,Te3As2,"[Element As, Element Te]",2,Te6 As4,0.43260000000000004,-0.001508734,5.771057633752973
mp-542910,V7O3,"[Element O, Element V]",2,V7 O3,0.0,-0.4361937435,4.703127828810699
mp-558351,SiO2,"[Element O, Element Si]",2,Si12 O24,5.626799999999999,-3.252659976666665,1.761935939556042
mp-556584,Pm2O3,"[Element O, Element Pm]",2,Pm6 O9,3.7016,-3.824552988500001,7.360583793338138
mp-556477,Lu2O3,"[Element Lu, Element O]",2,Lu6 O9,4.2763,-4.076956099416664,10.581659174371737
mp-556480,Ti3O5,"[Element O, Element Ti]",2,Ti6 O10,0.0,-3.373945726875001,4.027309286618516
mp-555574,Dy2O3,"[Element Dy, Element O]",2,Dy6 O9,3.997499999999999,-3.9771516840833323,9.056616953879317
mp-558573,Y2O3,"[Element O, Element Y]",2,Y6 O9,3.9557,-3.919644126499997,5.457599847821435
mp-560908,V3S4,"[Element S, Element V]",2,V3 S4,0.0,-1.047533668571427,4.261837542335177
mp-556253,Tm2O3,"[Element O, Element Tm]",2,Tm6 O9,4.1691,-4.051473884916673,9.923255578811622
mp-556995,Nd2O3,"[Element Nd, Element O]",2,Nd6 O9,3.6365,-3.773280861666664,7.102868648668398
mp-560236,MgF2,"[Element F, Element Mg]",2,Mg2 F4,6.3826,-3.716402113333333,1.90723984657909
mp-558748,Sc2O3,"[Element O, Element Sc]",2,Sc6 O9,3.4806,-3.9028742136666663,4.104120169376197
mp-558301,SiO2,"[Element O, Element Si]",2,Si16 O32,5.6614,-3.060296863541667,1.624309528857694
mp-555159,Pr2O3,"[Element O, Element Pr]",2,Pr6 O9,3.5518,-3.723743323833329,6.759038921663342
mp-554278,TiO2,"[Element O, Element Ti]",2,Ti4 O8,2.6774,-3.501638054444445,3.615939061446627
mp-556750,CoO2,"[Element Co, Element O]",2,Co1 O2,0.0,-0.9094040000000001,1.9240050199716032
mp-558564,SiO2,"[Element O, Element Si]",2,Si12 O24,5.683,-3.207331576111112,1.741105325539145
mp-559964,Ti6O11,"[Element O, Element Ti]",2,Ti12 O22,0.0,-3.438300099411763,3.975412048314062
mp-561149,Ce2O3,"[Element Ce, Element O]",2,Ce6 O9,0.0,-3.726515860333332,6.897419420217556
mp-557691,La2O3,"[Element La, Element O]",2,La6 O9,3.411,-3.844539306333335,6.378686656469288
mp-561197,TaF5,"[Element F, Element Ta]",2,Ta4 F20,5.5366,-3.404466658305554,5.557072175634586
mp-558336,Ho2O3,"[Element Ho, Element O]",2,Ho6 O9,4.0575,-3.9958732551666643,9.346667794546406
mp-567525,Te2Au,"[Element Au, Element Te]",2,Te2 Au1,0.0,-0.063471650000001,9.48103901426188
mp-567929,Al13Os4,"[Element Al, Element Os]",2,Al13 Os4,0.0,-0.53140296588235,7.129181968788288
mp-567207,SrIn4,"[Element In, Element Sr]",2,Sr2 In8,0.0,-0.25857772733333,6.3402943602933295
mp-568018,RbSb2,"[Element Rb, Element Sb]",2,Rb2 Sb4,0.267599999999999,-0.409100007500003,4.374456592588111
mp-567919,Al45V7,"[Element Al, Element V]",2,Al45 V7,0.0,-0.16927828615384702,3.174520368809913
mp-568301,BiBr3,"[Element Bi, Element Br]",2,Bi2 Br6,2.8692,-1.170171115000002,4.956050946467928
mp-568404,Li9Al4,"[Element Al, Element Li]",2,Li9 Al4,0.0,-0.168604108461538,1.319071677177241
mp-569867,SrP3,"[Element P, Element Sr]",2,Sr4 P12,0.378,-0.7546754528571421,3.341937723423155
mp-567624,CrBr2,"[Element Br, Element Cr]",2,Cr1 Br2,0.0,-1.004886046666666,3.966491849639076
mp-568306,Mg5Si6,"[Element Mg, Element Si]",2,Mg5 Si6,0.0,0.07932771863636301,2.438409491834174
mp-568746,Bi2Pd,"[Element Bi, Element Pd]",2,Bi4 Pd2,0.0,-0.198452750000001,11.332408044406208
mp-569410,PCl5,"[Element Cl, Element P]",2,P3 Cl15,1.7516,-0.650811190079366,2.194878120865734
mp-568388,BiI,"[Element Bi, Element I]",2,Bi4 I4,0.8279000000000001,-0.483924530000001,6.3706171289978
mp-569141,Lu11Te4,"[Element Lu, Element Te]",2,Lu33 Te12,0.0,-0.7325023220000001,10.036553009433382
mp-569318,PuNi4,"[Element Ni, Element Pu]",2,Pu3 Ni12,0.0,-0.11816490241666301,11.594660398133708
mp-570219,InBr3,"[Element Br, Element In]",2,In2 Br6,2.489,-1.239028326666666,4.47478553312914
mp-567584,Hf2Te,"[Element Hf, Element Te]",2,Hf8 Te4,0.0,-0.562713511666672,11.18731560111763
mp-568758,BiBr,"[Element Bi, Element Br]",2,Bi8 Br8,0.7863999999999991,-0.742962326250001,6.515652960169437
mp-568172,Ca3N2,"[Element Ca, Element N]",2,Ca9 N6,1.3593,-0.9217641895,2.850359479297944
mp-569766,TeI,"[Element I, Element Te]",2,Te4 I4,0.7871,-0.271386257083333,5.119597092881965
mp-570629,Ce4Ru3,"[Element Ce, Element Ru]",2,Ce8 Ru6,0.0,-0.371323679285712,9.359561409668759
mp-571247,Al3Mo,"[Element Al, Element Mo]",2,Al12 Mo4,0.0,-0.363495063749999,4.9139439906479065
mp-570451,Nb2Te3,"[Element Nb, Element Te]",2,Nb4 Te6,0.0,-0.676008516,7.5125136843922
mp-570562,Te3Pt2,"[Element Pt, Element Te]",2,Te6 Pt4,0.0,-0.432370729000001,10.23199784997243
mp-570325,AuSe,"[Element Au, Element Se]",2,Au4 Se4,0.0,-0.136406840781248,9.285992897548432
mp-615993,SiO2,"[Element O, Element Si]",2,Si14 O28,5.5053,-3.2553473116666662,1.8140142435890492
mp-571060,In9Pt13,"[Element In, Element Pt]",2,In9 Pt13,0.0,-0.535437439829551,14.778784258071234
mp-632413,CoCl2,"[Element Cl, Element Co]",2,Co1 Cl2,0.06279999999999901,-0.744496831666666,3.5354853053949693
mp-570920,Ga5Fe6,"[Element Fe, Element Ga]",2,Ga10 Fe12,0.0,-0.14621831522727102,7.829618294127698
mp-618813,Gd2Br3,"[Element Br, Element Gd]",2,Gd4 Br6,0.229499999999999,-1.846708126999996,5.805705632184458
mp-636946,Fe6Ge5,"[Element Fe, Element Ge]",2,Fe12 Ge10,0.0,-0.09174235227272601,8.173900819644391
mp-571256,MoCl5,"[Element Cl, Element Mo]",2,Mo6 Cl30,0.0,-0.935717824027779,2.805702036086805
mp-583168,NaSn2,"[Element Na, Element Sn]",2,Na8 Sn16,0.0,-0.188916883333334,4.886661814469602
mp-583740,Zr7P4,"[Element P, Element Zr]",2,Zr14 P8,0.0,-1.167079413961038,6.155984321947747
mp-571258,Er6I7,"[Element Er, Element I]",2,Er6 I7,0.0,-1.085635744230768,6.835000616319358
mp-573,Ni3Se4,"[Element Ni, Element Se]",2,Ni3 Se4,0.0,-0.313330463749999,7.026242552392445
mp-583234,Bi4I,"[Element Bi, Element I]",2,Bi16 I4,0.0,-0.161865844000005,8.30619413642376
mp-573810,U2Te5,"[Element Te, Element U]",2,U4 Te10,0.0,-0.8960931192857191,8.38539297199383
mp-571377,TiCl3,"[Element Cl, Element Ti]",2,Ti6 Cl18,0.0,-1.781855178124982,2.4583540424367962
mp-570538,NaN3,"[Element N, Element Na]",2,Na1 N3,3.9442,-0.16696232156250002,1.921670516506478
mp-580931,MgZn5,"[Element Mg, Element Zn]",2,Mg4 Zn20,0.0,-0.037178825416666006,5.949176144787029
mp-634867,TiF3,"[Element F, Element Ti]",2,Ti1 F3,0.0,-2.402767662083334,4.7842387836682665
mp-601823,TaTe2,"[Element Ta, Element Te]",2,Ta3 Te6,0.0,-0.6384653054074061,8.686028117255745
mp-638253,EuIn4,"[Element Eu, Element In]",2,Eu2 In8,0.0,-0.25549319533333004,7.282770337831411
mp-667383,SiO2,"[Element O, Element Si]",2,Si28 O56,5.5383,-3.258716410357143,1.744532123123708
mp-641509,In9Ni13,"[Element In, Element Ni]",2,In9 Ni13,0.0,-0.112644299545453,9.344712264833943
mp-644514,MnO2,"[Element Mn, Element O]",2,Mn6 O12,0.540999999999999,-1.8225279240325691,5.001461680242682
mp-643084,Gd2O3,"[Element Gd, Element O]",2,Gd6 O9,2.905699999999999,-3.8741220021666702,8.312236785643153
mp-642644,V2H,"[Element H, Element V]",2,V2 H1,0.0,-0.170592549583335,5.978560817700777
mp-643542,CaGe2,"[Element Ca, Element Ge]",2,Ca1 Ge2,0.0,-0.45756554333333505,4.24179490929589
mp-662706,SiO2,"[Element O, Element Si]",2,Si28 O56,5.611800000000001,-3.258455695119047,1.847296768491363
mp-655547,Pb2O3,"[Element O, Element Pb]",2,Pb4 O6,0.0,-1.193395483999999,9.284180737500472
mp-662804,Sm10Pd21,"[Element Pd, Element Sm]",2,Sm20 Pd42,0.0,-0.875452257741933,10.272072546750007
mp-680850,Ti8S3,"[Element S, Element Ti]",2,Ti32 S12,0.0,-1.018810084696969,4.732975207820129
mp-654801,CuO2,"[Element Cu, Element O]",2,Cu1 O2,0.072799999999999,-0.400261233333333,1.806901802890346
mp-679962,Ti8Se3,"[Element Se, Element Ti]",2,Ti32 Se12,0.0,-0.803440841245265,5.610258959172397
mp-684711,Zr3S4,"[Element S, Element Zr]",2,Zr15 S20,0.0,-1.177445720857142,4.798360863709186
mp-684934,U5O11,"[Element O, Element U]",2,U5 O11,0.0,-3.612468664687497,11.404457596833517
mp-676024,Li27Sb10,"[Element Li, Element Sb]",2,Li27 Sb10,0.0,-0.7128651245945941,3.38343499670125
mp-680204,SiO2,"[Element O, Element Si]",2,Si22 O44,5.6096,-3.25888078151515,2.020047510623644
mp-637631,Tm15S22,"[Element S, Element Tm]",2,Tm15 S22,0.0,-2.31135916434122,6.472335859215496
mp-676620,Li27As10,"[Element As, Element Li]",2,Li27 As10,0.0,-0.7952328702195951,2.737961830800539
mp-646039,In7Cu10,"[Element Cu, Element In]",2,In14 Cu20,0.0,-0.043822473823531,8.7186956247003
mp-647924,Eu2O3,"[Element Eu, Element O]",2,Eu6 O9,0.0,-3.4334678050000003,7.8275134632345
mp-714883,MoO2,"[Element Mo, Element O]",2,Mo1 O2,0.9817,-1.81160759,5.106622183369134
mp-685047,V23Se40,"[Element Se, Element V]",2,V23 Se40,0.0,-0.869184693849206,5.67210604646895
mp-754800,Ni3O4,"[Element Ni, Element O]",2,Ni6 O8,0.0,-1.005543350714285,5.603808633155922
mp-6950,BaSb3,"[Element Ba, Element Sb]",2,Ba2 Sb6,0.0,-0.5474064925000001,5.794105747352703
mp-695850,CdCl2,"[Element Cd, Element Cl]",2,Cd1 Cl2,3.5155000000000003,-1.272014778333333,3.822376994410115
mp-7048,Al2O3,"[Element Al, Element O]",2,Al4 O6,4.4553,-3.409391490000001,3.626309528339469
mp-720166,V2O5,"[Element O, Element V]",2,V2 O5,1.3794,-2.161477495,3.442657201799765
mp-714929,CrO2,"[Element Cr, Element O]",2,Cr2 O4,0.36860000000000004,-1.8631402600000002,3.989574315276352
mp-7291,CrP2,"[Element Cr, Element P]",2,Cr2 P4,0.0,-0.32607621031745904,5.046900362258206
mp-715479,Mo3O8,"[Element Mo, Element O]",2,Mo3 O8,0.7517,-1.6688150645454551,4.300489463748029
mp-715614,Fe3O4,"[Element Fe, Element O]",2,Fe6 O8,0.0,-1.176920409285714,5.065691746045758
mp-726184,PbS,"[Element Pb, Element S]",2,Pb2 S2,1.719399999999999,-0.7250773837499991,2.699717198511583
mp-753593,Ti10O13,"[Element O, Element Ti]",2,Ti10 O13,0.0,-3.137637334710146,4.945096213045504
mp-684969,Sc2S3,"[Element S, Element Sc]",2,Sc4 S6,0.927999999999999,-2.167943485687499,2.893723673250585
mp-690772,V5S8,"[Element S, Element V]",2,V5 S8,0.0,-1.24740896076923,3.873024246503617
mp-714944,VO2,"[Element O, Element V]",2,V1 O2,1.067699999999999,-2.342145126666668,3.721410333696192
mp-754698,NbO2,"[Element Nb, Element O]",2,Nb4 O8,0.0,-2.84498296875,4.976998975711901
mp-715811,Fe3O4,"[Element Fe, Element O]",2,Fe12 O16,0.032,-1.566391524999999,4.9148412460464055
mp-696673,Cr7Se8,"[Element Cr, Element Se]",2,Cr7 Se8,0.0,-0.655663398583333,5.612176078717732
mp-731864,Si6O13,"[Element O, Element Si]",2,Si12 O26,0.008799999999999001,-2.900884639210526,1.32268854229413
mp-7281,Dy3Ni2,"[Element Dy, Element Ni]",2,Dy6 Ni4,0.0,-0.358840148999996,9.08512269309178
mp-727323,PbS,"[Element Pb, Element S]",2,Pb2 S2,1.654,-0.7260083862499981,3.9970786431028253
mp-775935,ZrO2,"[Element O, Element Zr]",2,Zr3 O6,3.825,-3.6831441938888902,4.5723229995210914
mp-758601,MnF3,"[Element F, Element Mn]",2,Mn2 F6,1.3373,-2.673052801982759,3.143953090369681
mp-7808,BaP3,"[Element Ba, Element P]",2,Ba2 P6,0.5735,-0.66459478973214,3.788289939619789
mp-755411,VO2,"[Element O, Element V]",2,V6 O12,0.255099999999999,-2.41778265,3.845262131737735
mp-754812,Al2O3,"[Element Al, Element O]",2,Al4 O6,4.205500000000001,-3.341665016000001,3.094645987901551
mp-777698,V2O3,"[Element O, Element V]",2,V6 O9,0.0,-2.451144455000001,4.724242442422593
mp-863316,FeO3,"[Element Fe, Element O]",2,Fe2 O6,0.30509999999999904,-0.5265605050000001,2.8052315225420443
mp-850032,Fe3S4,"[Element Fe, Element S]",2,Fe6 S8,0.0,-0.6195834821428551,4.746843324145993
mp-755333,HgO2,"[Element Hg, Element O]",2,Hg1 O2,0.36550000000000005,-0.031539497500001006,8.083395485520825
mp-826024,VO3,"[Element O, Element V]",2,V4 O12,0.0785,-1.66336715,2.450705287354449
mp-755769,ZrO2,"[Element O, Element Zr]",2,Zr4 O8,4.1946,-3.722506047499999,4.589118191733542
mp-754815,YBr3,"[Element Br, Element Y]",2,Y2 Br6,3.976499999999999,-2.30537281125,3.731359469171679
mp-754806,Ni5O6,"[Element Ni, Element O]",2,Ni5 O6,0.0,-1.06833911,6.200943768911236
mp-756436,FeO,"[Element Fe, Element O]",2,Fe2 O2,0.9475000000000001,-1.3658911025,5.5386282325862215
mp-776603,Mn15O32,"[Element Mn, Element O]",2,Mn15 O32,0.034600000000000006,-1.6072824010418212,3.978051832994468
mp-7598,NbAs2,"[Element As, Element Nb]",2,Nb2 As4,0.0,-0.5190902916666661,7.328967328093465
mp-758933,B8O,"[Element B, Element O]",2,B48 O6,2.3536,-0.600347085,2.533458900688488
mp-773019,V12O29,"[Element O, Element V]",2,V12 O29,0.5418000000000001,-2.283690791829268,3.389066067264447
mp-766454,TiO2,"[Element O, Element Ti]",2,Ti3 O6,2.231,-3.4621163130555552,4.019598507976489