material_id,formula_pretty,elements,nelements,composition,band_gap,formation_energy_per_atom,density
mp-10765,Ho,[Element Ho],1,Ho1,0.0,0.049763695000002,8.824743523553904
mp-20483,Pb,[Element Pb],1,Pb1,0.0,0.0,11.079630616255997
mp-1056702,Mg,[Element Mg],1,Mg1,0.0,0.030189964999999003,1.785243836628089
mp-10660,Tm,[Element Tm],1,Tm1,0.0,0.057614779999994,9.330131529335663
mp-134,Al,[Element Al],1,Al1,0.0,0.0,2.720050209019067
mp-124,Ag,[Element Ag],1,Ag1,0.0,0.0021267149999990003,10.362566636379526
mp-23,Ni,[Element Ni],1,Ni1,0.0,0.0,9.289219853118466
mp-10752,Er,[Element Er],1,Er1,0.0,0.06685896666666401,9.106171296517454
mp-111,Ne,[Element Ne],1,Ne1,11.6898,0.0,1.8156068351710681
mp-10679,Ba,[Element Ba],1,Ba1,0.0,0.01299892,3.375148843650796
mp-150,Fe,[Element Fe],1,Fe1,0.0,0.148364500000001,7.593373845581131
mp-2,Pd,[Element Pd],1,Pd1,0.0,0.0,11.759025221988814
mp-156,La,[Element La],1,La1,0.0,0.019361705000001003,6.118440887895661
mp-37,Th,[Element Th],1,Th1,0.0,0.0,11.986838818315015
mp-27,Si,[Element Si],1,Si1,0.0,0.53156601,3.3422177369201362
mp-23155,Ar,[Element Ar],1,Ar1,8.5132,0.0,1.720053306789052
mp-28,Ce,[Element Ce],1,Ce1,0.0,0.0,9.123650329962311
mp-51,Li,[Element Li],1,Li1,0.0,0.001672373333333,0.5664547498885351
mp-36,Sc,[Element Sc],1,Sc1,0.0,0.101017464999999,2.962803994957294
mp-30,Cu,[Element Cu],1,Cu1,0.0,0.0,9.21899604714547
mp-684673,S,[Element S],1,S1,0.0,1.301282766875,3.3561857521513
mp-2646972,Zn,[Element Zn],1,Zn1,0.0,0.005205379999999001,7.160073454618153
mp-8635,Zr,[Element Zr],1,Zr1,0.0,0.056982134999998005,6.5214180542428615
mp-8637,Mo,[Element Mo],1,Mo1,0.0,0.41146717999999805,10.126615765518414
mp-74,Rh,[Element Rh],1,Rh1,0.0,0.0,12.39797767429029
mp-76,Sr,[Element Sr],1,Sr1,0.0,0.044811709999999005,2.605829880682369
mp-6986,Ta,[Element Ta],1,Ta1,0.0,0.24488082999999902,16.55345008363142
mp-81,Au,[Element Au],1,Au1,0.0,0.0,18.02564918288778
mp-721759,N2,[Element N],1,N1,0.0,4.506578815000001,3.100004743503934
mp-8633,Cr,[Element Cr],1,Cr1,0.0,0.40252634000000104,7.507583917611
mp-623532,Eu,[Element Eu],1,Eu1,0.0,0.031110114999997003,5.813971261397927
mp-634659,H2,[Element H],1,H1,7.5517,2.33094435125,0.041849643525213004
mp-8636,Nb,[Element Nb],1,Nb1,0.0,0.32016416000000003,8.191931935937479
mp-612118,Kr,[Element Kr],1,Kr1,7.1828,0.007569553333333001,2.8630283835319723
mp-614456,He,[Element He],1,He1,17.8914,0.0026731600000000004,0.42047512298271705
mp-85,In,[Element In],1,In1,0.0,0.0,7.22400940173368
mp-614502,Gd,[Element Gd],1,Gd1,0.0,0.07462653000000301,7.551189099726125
mp-7163,Tb,[Element Tb],1,Tb1,0.0,0.031530149999998,8.24572231151971
mp-753304,Hg,[Element Hg],1,Hg1,0.5361,0.022511372499998003,12.170071428745281
mp-8638,Tc,[Element Tc],1,Tc1,0.0,0.073442249999999,11.358061212982255
mp-8640,Hf,[Element Hf],1,Hf1,0.0,0.08898112999999301,13.269194612026899
mp-674158,P,[Element P],1,P1,2.0034,3.517774656666667,0.424010292287317
mp-6985,Ti,[Element Ti],1,Ti1,0.0,0.08726523333333301,4.582364227559261
mp-8632,V,[Element V],1,V1,0.0,0.247140399999999,6.201746052332707
mp-45,Ca,[Element Ca],1,Ca1,0.0,0.0,1.534815625204312
mp-611517,Xe,[Element Xe],1,Xe1,6.2094,0.0057806999999990005,3.186043402266391
mp-8634,Mn,[Element Mn],1,Mn1,0.0,0.42059543551724204,8.735489383934738
mp-8639,Ru,[Element Ru],1,Ru1,0.0,0.13095969499999702,12.3179944873115
mp-8643,Os,[Element Os],1,Os1,0.0,0.16492783999999702,22.243847250272697
mp-8641,W,[Element W],1,W1,0.0,0.47142784000000404,19.19484101991006
mp-9,Y,[Element Y],1,Y1,0.0,0.097818,4.441319265847142
mp-8642,Re,[Element Re],1,Re1,0.0,0.068419187500005,20.799270145231553
mp-974558,Na,[Element Na],1,Na1,0.0,0.008802479999999,1.016804520724181
mp-998861,Br,[Element Br],1,Br1,0.0,0.6662806450000001,5.13762777543269
mp-97,Pr,[Element Pr],1,Pr6,0.0,0.008044545,6.276136267575055
mp-32,Ge,[Element Ge],1,Ge2,0.0,0.0,5.280205104250077
mp-12771,Se,[Element Se],1,Se2,0.0,0.514120702656249,4.294078481304132
mp-1057818,O2,[Element O],1,O2,0.0,1.8808411749999991,2.59692544462618
mp-149,Si,[Element Si],1,Si2,0.6105,0.0,2.312800253345134
mp-117,Sn,[Element Sn],1,Sn2,0.0,0.0,5.560776472065438
mp-16220,Si,[Element Si],1,Si34,0.5334000000000001,0.393193089411763,2.00607082485501
mp-1072089,Co,[Element Co],1,Co6,0.0,0.19932627500000102,8.815086984090783
mp-1247117,Pb,[Element Pb],1,Pb2,0.0,0.262423895000004,8.459453354022203
mp-1198022,Ge,[Element Ge],1,Ge34,1.1428,0.043253197058822,4.624966682635579
mp-66,C,[Element C],1,C2,4.1145,0.11226490000000101,3.534148102771878
mp-1197020,Ge,[Element Ge],1,Ge34,0.0,0.326883863529412,4.497531096900577
mp-10751,Dy,[Element Dy],1,Dy1,0.0,0.127580304999998,8.427593140732464
mp-110,Mg,[Element Mg],1,Mg1,0.0,0.039679875,1.811054814310633
mp-10661,Tm,[Element Tm],1,Tm1,0.0,0.117054029999998,9.165251131527054
mp-1,Cs,[Element Cs],1,Cs1,0.0,0.019341450000002,1.8019302459760531
mp-122,Ba,[Element Ba],1,Ba2,0.0,0.0,3.508308296137423
mp-1055908,Mn,[Element Mn],1,Mn1,0.0,0.36972538551724204,8.432434019299032
mp-10023,La,[Element La],1,La1,0.0,0.104221345000002,6.019335414500294
mp-11421,Gd,[Element Gd],1,Gd1,0.0,0.14971621000000102,7.750523865481032
mp-1017981,Hg,[Element Hg],1,Hg4,0.0,0.001088535,12.334025723214213
mp-1014212,Si,[Element Si],1,Si1,0.0,0.525495500000001,3.364140332420601
mp-146,V,[Element V],1,V1,0.0,0.0,6.37754470312308
mp-20071,Eu,[Element Eu],1,Eu1,0.0,0.041439605000000004,5.584403506218891
mp-2646977,Pd,[Element Pd],1,Pd1,0.0,0.044765070000000004,11.366371902758614
mp-100,Hf,[Element Hf],1,Hf1,0.0,0.212179789999993,13.41932142688018
mp-129,Mo,[Element Mo],1,Mo1,0.0,0.0,10.024908649125194
mp-1184478,In,[Element In],1,In1,0.0,0.027791910000001002,7.144579294580641
mp-10190,Lu,[Element Lu],1,Lu1,0.0,0.10293042333334,9.734197591877503
mp-10024,Ce,[Element Ce],1,Ce1,0.0,0.22825040500000002,7.9260764466733455
mp-10207,Np,[Element Np],1,Np1,0.0,0.44749432125000504,24.0001618304367
mp-11343,Th,[Element Th],1,Th1,0.0,0.15152667000000902,11.710839335893274
mp-21,Ca,[Element Ca],1,Ca1,0.0,0.005616039999999,1.558186821803846
mp-2646971,Ag,[Element Ag],1,Ag1,0.0,0.034337163333333004,9.86674239833866
mp-1072544,Si,[Element Si],1,Si6,0.1444,0.22239860833333203,1.88413449553028
mp-135,Li,[Element Li],1,Li1,0.0,0.009650863333333001,0.5666126169854631
mp-10641,Sc,[Element Sc],1,Sc4,0.0,0.102231445000001,2.967293025578273
mp-107,Pu,[Element Pu],1,Pu1,0.0,0.545743319999999,26.581335737924945
mp-22692,Pb,[Element Pb],1,Pb1,0.0,0.042154440000004005,11.086828211546672
mp-1008728,Ni,[Element Ni],1,Ni1,0.0,0.11925923000000001,9.196826321120955
mp-10753,Er,[Element Er],1,Er1,0.0,0.139390026666667,8.973053933634953
mp-1063988,S,[Element S],1,S4,0.0,1.137483786875002,3.405800603040107
mp-11446,Tb,[Element Tb],1,Tb1,0.0,0.12420621999999701,8.113296617398502
mp-108,U,[Element U],1,U1,0.0,0.268548380000012,21.15073968184894
mp-119,Se,[Element Se],1,Se1,0.0,0.5956268076562501,6.6314596796728935
mp-13,Fe,[Element Fe],1,Fe2,0.0,0.0,7.902858241785766
mp-127,Na,[Element Na],1,Na1,0.0,0.015772269999999002,1.024636726390733
mp-20,Be,[Element Be],1,Be1,0.0,0.09567004499999901,1.901253762022695
mp-23158,He,[Element He],1,He1,17.6377,0.0,0.38432359529043403
mp-2646979,Pt,[Element Pt],1,Pt1,0.0,0.10703881999999901,20.368745538703337
mp-2647062,Au,[Element Au],1,Au1,0.0,0.021884700000001003,17.96398177558859
mp-2647135,Cd,[Element Cd],1,Cd1,0.0,0.065309160000001,8.21444501306283
mp-2647057,Co,[Element Co],1,Co1,0.0,0.08956573499999801,8.871717589669283
mp-979285,Xe,[Element Xe],1,Xe1,6.236800000000001,0.00193749,3.250781359789564
mp-632250,H2,[Element H],1,H1,7.4222,2.33223158125,0.023670127883518
mp-2647031,Os,[Element Os],1,Os1,0.0,0.88282908,21.246477877589438
mp-63,Pr,[Element Pr],1,Pr1,0.0,0.12602521833333502,6.340115719819442
mp-2647047,Ir,[Element Ir],1,Ir1,0.0,0.588982909999998,21.03825552504352
mp-974400,Kr,[Element Kr],1,Kr1,7.1667,0.013854593333332001,2.481197176929739
mp-673171,Br,[Element Br],1,Br1,0.0,0.629577425,5.022840830263788
mp-73,Ti,[Element Ti],1,Ti1,0.0,0.151428373333333,4.6239119456582625
mp-7761,Sb,[Element Sb],1,Sb1,0.0,0.23852457000000202,7.713209933400728
mp-684663,I,[Element I],1,I1,0.0,0.44566658499999906,5.775858806542809
mp-91,W,[Element W],1,W1,0.0,0.0,19.160711319694276
mp-50,Ta,[Element Ta],1,Ta1,0.0,0.009149912666664001,16.573164675563017
mp-568610,Bi,[Element Bi],1,Bi1,0.0,0.23528697499999301,11.15213737744292
mp-95,Sr,[Element Sr],1,Sr1,0.0,0.061362349999999004,2.6239614024250093
mp-998883,Ge,[Element Ge],1,Ge1,0.0,0.33948980499999903,6.631385725974751
mp-90,Cr,[Element Cr],1,Cr2,0.0,0.0,6.5987767847843095
mp-4,Nd,[Element Nd],1,Nd1,0.0,0.11538799250000001,6.697788708508856
mp-2647000,Rh,[Element Rh],1,Rh1,0.0,0.34932510000000105,11.618475696751462
mp-2647117,Zn,[Element Zn],1,Zn1,0.0,0.071662429999999,7.029542496743742
mp-39,Tl,[Element Tl],1,Tl1,0.0,0.009790289999997,11.337862263365539
mp-570002,C,[Element C],1,C8,3.0059,0.765540527499998,2.8085082877991843
mp-71,Yb,[Element Yb],1,Yb1,0.0,0.091576164999999,9.48497000275344
mp-998890,Cu,[Element Cu],1,Cu1,0.0,0.033066179999998,9.209264324422124
mp-2647037,Re,[Element Re],1,Re1,0.0,0.318312104999996,20.323090661884027
mp-41,Zr,[Element Zr],1,Zr1,0.0,0.121641834999998,6.593599574574509
mp-58,K,[Element K],1,K1,0.0,0.015213726250000002,0.826864520888935
mp-75,Nb,[Element Nb],1,Nb1,0.0,0.0,8.449671959986281
mp-998860,Al,[Element Al],1,Al1,0.0,0.10340029,2.780137042647564
mp-70,Rb,[Element Rb],1,Rb8,0.0,0.0092124725,1.502786691422087
mp-7162,Sn,[Element Sn],1,Sn1,0.0,0.24906495999999803,7.245830617415744
mp-7236,Ho,[Element Ho],1,Ho1,0.0,0.12785612500000101,8.68143669457458
mp-1178952,Te,[Element Te],1,Te4,0.0,0.049135678333332,6.352085390179579
mp-561370,S,[Element S],1,S88,2.4117,0.027740434687500003,1.888966053151486
mp-1196831,S,[Element S],1,S80,2.3162000000000003,0.010508631999999001,1.650829825410852
mp-1977409,S,[Element S],1,S80,2.5977,0.006323890562499001,1.930321848917389
mp-2017534,Mg,[Element Mg],1,Mg10,0.0,0.16564932200000002,1.61053661543763
mp-557869,S,[Element S],1,S48,2.3843,0.0003716303125,1.8882349578149422
mp-1181019,Mo,[Element Mo],1,Mo16,0.0,0.331962506875001,9.761774227467827
mp-738409,H2,[Element H],1,H32,8.1865,0.0027149890625,0.07136125799495101
mp-731594,C,[Element C],1,C28,1.6358000000000001,1.5011551592857142,1.15170657466459
mp-1224431,Hg,[Element Hg],1,Hg34,0.7993,0.040622631176467,7.059681036103451
mp-1949777,Rb,[Element Rb],1,Rb8,0.0,0.004658701249999,1.483265160189783
mp-1983234,U,[Element U],1,U16,0.0,0.35454259125000903,18.707222485190716
mp-2646980,C,[Element C],1,C6,0.0,0.642655674166666,2.562894817937748
mp-666931,S,[Element S],1,S32,2.603399999999999,0.020726370312500002,1.4696555619989131
mp-1200324,U,[Element U],1,U32,0.0,0.360812943437508,18.913791596815603
mp-569358,Bi,[Element Bi],1,Bi2,0.0,0.5993978949999951,6.132855237901585
mp-1197206,U,[Element U],1,U32,0.0,0.355388935000007,18.707222485190716
mp-105,Te,[Element Te],1,Te4,0.0,0.07849671499999601,6.5477056075772495
mp-1096851,Bi,[Element Bi],1,Bi2,0.0,0.09904824999999501,10.323616229303493
mp-1060567,Ir,[Element Ir],1,Ir2,0.0,3.780912309999998,3.2468452110045742
mp-1545661,N2,[Element N],1,N16,0.46340000000000003,2.004468542499999,1.576965531418995
mp-1014013,P,[Element P],1,P4,0.8832000000000001,0.053987197023809004,0.388033321298891
mp-1189505,N2,[Element N],1,N16,0.27180000000000004,2.17741108875,0.9555613130567481
mp-1012110,Cs,[Element Cs],1,Cs4,0.0,0.024368322499999002,1.767725483488681
mp-1065340,W,[Element W],1,W4,0.0,0.4913923625,18.14771377830403
mp-1182809,Cs,[Element Cs],1,Cs4,0.0,0.024276159999999002,1.7703773639547302
mp-1147718,C,[Element C],1,C120,0.9669000000000001,0.388692925583332,1.743225115813743
mp-1205283,C,[Element C],1,C120,0.10600000000000001,0.6993028923333321,2.114171738704126
mp-558014,S,[Element S],1,S24,2.1763,0.010299026770834,1.9221986817008632
mp-1193675,B,[Element B],1,B28,1.5133,0.029066011071428,2.571074933276366
mp-568028,C,[Element C],1,C120,0.304199999999999,0.5308612086666661,2.182033170475266
mp-1247180,Mg,[Element Mg],1,Mg10,0.0,0.17737867100000101,1.6077215762865351
mp-1094075,P,[Element P],1,P10,1.305899999999999,0.08636613702381,0.759669675034456
mp-558964,S,[Element S],1,S80,2.5982000000000003,0.0139460190625,1.8680217915497672
mp-560602,O2,[Element O],1,O24,1.3241,0.41129867541666604,1.900746171884904
mp-1188177,H2,[Element H],1,H16,7.3865,0.003537998749999,0.128481813990338
mp-1181265,H2,[Element H],1,H16,1.517799999999999,1.188433449375,0.06065800574112801
mp-11534,Np,[Element Np],1,Np8,0.0,0.0,21.731678726830992
mp-1176403,N2,[Element N],1,N4,0.0,1.08825211125,2.123257186040081
mp-1080043,K,[Element K],1,K8,0.0,0.06362052450000001,0.8093310919806701
mp-731827,H2,[Element H],1,H16,8.3343,0.002278983125,0.08062064183838301
mp-1079952,Na,[Element Na],1,Na8,0.0,0.086311797198275,0.9592318243653051
mp-1007976,Cs,[Element Cs],1,Cs4,0.0,0.054916592068963,1.898749440080472
mp-1196857,C,[Element C],1,C52,0.5989,1.601080180192307,1.01614965158914
mp-1190171,C,[Element C],1,C16,4.3294999999999995,0.292670106874998,3.407679442955229
mp-1178958,U,[Element U],1,U8,0.0,0.020668409999998003,19.727816511815405
mp-1545455,K,[Element K],1,K8,0.0,0.00632175,0.846322284768652
mp-1059259,Cu,[Element Cu],1,Cu2,0.0,0.15576821999999801,8.797816901473627
mp-1009757,Se,[Element Se],1,Se2,0.0,0.20952714093749902,5.04674444990596
mp-1057315,Eu,[Element Eu],1,Eu2,0.0,0.015575354999995001,6.086594594234831
mp-1001113,Si,[Element Si],1,Si4,0.0,0.48982796249999905,3.037093781943305
mp-1009594,Pr,[Element Pr],1,Pr2,0.0,0.046940603333336,6.332258555481652
mp-1067880,Ga,[Element Ga],1,Ga4,0.0,0.011309182499999001,5.809426603818376
mp-1058581,Ba,[Element Ba],1,Ba2,0.0,0.018660005,3.481574892943981
mp-1096835,Ba,[Element Ba],1,Ba4,0.0,0.513503127499999,4.193889148209845
mp-10021,Ga,[Element Ga],1,Ga2,0.0,0.08339199499999901,6.3645470457803555
mp-1058623,O2,[Element O],1,O2,0.0,1.570656844999999,2.635648920136587
mp-64,Ce,[Element Ce],1,Ce2,0.0,0.03472009,9.16716753907054
mp-1059289,Cr,[Element Cr],1,Cr2,0.0,0.335908380000001,7.507180376154436
mp-1064227,Ca,[Element Ca],1,Ca2,0.0,0.010473554999999002,1.529514324812333
mp-1545923,Na,[Element Na],1,Na8,0.0,0.006627077500000001,1.014423193825449
mp-1949763,Bi,[Element Bi],1,Bi4,0.0655,0.07226496999999901,9.982727061273462
mp-2018774,Na,[Element Na],1,Na4,0.0,0.010884320000000001,1.012528815046613
mp-972981,K,[Element K],1,K2,0.0,0.006670691249999,0.8422291412147711
mp-1095269,Si,[Element Si],1,Si12,0.5013000000000001,0.11054831833333201,2.154770179587084
mp-2351841,Si,[Element Si],1,Si4,0.0,0.44883388250000006,2.997685500438472
mp-567540,Ga,[Element Ga],1,Ga20,0.0,0.081974896999999,6.339971718879717
mp-975272,Hg,[Element Hg],1,Hg2,0.104199999999999,0.006845172500000001,11.735995423642647
mp-683919,C,[Element C],1,C140,1.1035,0.35041286907142705,1.762578723586691
mp-1204627,Si,[Element Si],1,Si46,1.521599999999999,0.12913409456521602,2.005337972467486
mp-975204,Rb,[Element Rb],1,Rb2,0.0,0.011841107500000001,1.489126142476195
mp-1097832,C,[Element C],1,C2,0.0,2.607661687499999,1.516728175303045
mp-1056957,C,[Element C],1,C2,0.0,2.6181942174999993,2.322366427920791
mp-1096840,Ba,[Element Ba],1,Ba2,0.0,7.525500000005181e-05,3.514308831818658
mp-1271198,Fe,[Element Fe],1,Fe4,0.0,0.054992034999999,7.618499799098144
mp-44,U,[Element U],1,U2,0.0,0.0,20.113723164295358
mp-1067285,Ca,[Element Ca],1,Ca4,0.0,0.27683042,1.494402494283007
mp-1008394,Cl2,[Element Cl],1,Cl4,2.2818,6.139999999987822e-06,2.089777516716536
mp-22848,Cl2,[Element Cl],1,Cl4,2.5434,0.0,2.086496109964204
mp-760482,F2,[Element F],1,F4,3.0949,0.0034656799999990004,1.336311429514189
mp-142,Ga,[Element Ga],1,Ga4,0.0,0.0,6.037763281793802
mp-1007857,Ga,[Element Ga],1,Ga4,0.0,0.12453846500000001,6.44319854464994
mp-1103107,Li,[Element Li],1,Li12,0.0,0.055379472500000006,0.570192381038717
mp-1079020,Ge,[Element Ge],1,Ge8,0.0,0.313740758749999,6.451939128067263
mp-1187777,Xe,[Element Xe],1,Xe4,6.152100000000001,0.004449892499999,2.857576348689052
mp-1120743,P,[Element P],1,P4,2.783299999999999,0.8729975666666651,0.598900944626741
mp-157,P,[Element P],1,P4,0.010399999999999,0.020214559523809003,2.514125107150334
mp-573691,K,[Element K],1,K8,0.0,0.031988253249999,0.8777080958565251
mp-1525121,Br,[Element Br],1,Br4,1.687399999999999,0.0,3.9952224887518972
mp-1078637,Bi,[Element Bi],1,Bi8,0.0,0.100849827499999,10.66122099731683
mp-1524762,Xe,[Element Xe],1,Xe4,6.0836,0.021933189999998003,3.0268406665477112
mp-1546032,Hg,[Element Hg],1,Hg6,0.43909999999999905,0.008225503333335,11.671125508453576
mp-1184804,K,[Element K],1,K8,0.0,0.0,0.8483626258230531
mp-1525634,I,[Element I],1,I4,1.2444,0.0,4.84113681051981
mp-867305,Pu,[Element Pu],1,Pu4,0.0,0.587283381250003,21.529319408154457
mp-573579,Cs,[Element Cs],1,Cs8,0.0,0.053976002068964,1.865354282430968
mp-973783,H2,[Element H],1,H4,8.802200000000001,0.001528826249999,0.120014934842306
mp-1079649,Si,[Element Si],1,Si8,0.0,0.42791178374999905,3.191772611073461
mp-1525632,F2,[Element F],1,F4,2.8979,0.0,2.366528995141169
mp-158,As,[Element As],1,As4,0.0,0.0,5.049641043483309
mp-1987603,U,[Element U],1,U16,0.0,1.6651529475000042,7.131255919832763
mp-23153,I,[Element I],1,I4,0.9846,0.0,4.074684630977836
mp-23154,Br,[Element Br],1,Br4,1.3261999999999992,0.0,3.372613643437797
mp-1525492,H2,[Element H],1,H1,0.0,0.39538021125,0.26321841465175805
mp-1224349,Ge,[Element Ge],1,Ge1,0.0,0.251753895,6.151960740616385
mp-1217805,Ta,[Element Ta],1,Ta2,0.0,5.145464995000005,0.529421145576362
mp-579909,C,[Element C],1,C8,0.0,0.9450012137499981,1.915054772343011
mp-1008374,C,[Element C],1,C4,0.0,0.43841150499999904,3.063062968693546
mp-1078845,C,[Element C],1,C8,3.3272999999999993,0.267769908749999,3.461273443244769
mp-1066989,H2,[Element H],1,H4,6.2332,0.05246598,0.11773257304464001
mp-568410,C,[Element C],1,C8,0.028100000000000003,0.508887008749999,2.8011652272677363
mp-9924,Te,[Element Te],1,Te2,0.0,0.127406703333335,6.019642086761262
mp-1981700,U,[Element U],1,U8,0.0,0.359552800000003,18.91378993596806
mp-1068966,K,[Element K],1,K5,0.0,0.17913493500000002,0.6462967090133791
mp-1179639,S,[Element S],1,S4,0.0,0.355039354375,1.788525970490511
mp-1179641,S,[Element S],1,S4,0.0,0.344424966874999,1.696815160100957
mp-568363,C,[Element C],1,C4,0.0,0.008253912499998,1.855603932846249
mp-1524452,O2,[Element O],1,O4,0.9855,0.16492055875,2.226573108457409
mp-568286,C,[Element C],1,C16,0.0,0.008188829999999,2.179232832486199
mp-624889,C,[Element C],1,C8,0.0,1.256077986249998,2.333812574022664
mp-607540,O2,[Element O],1,O2,0.0,0.12115633999999902,2.400921968699535
mp-1181096,Hg,[Element Hg],1,Hg1,0.0,0.012642065000001,10.142603741628614
mp-1525652,Bi,[Element Bi],1,Bi8,0.0,0.096277074999996,10.290141169209468
mp-1180981,I,[Element I],1,I1,0.0,0.11707855499999902,5.196446350538254
mp-148,Ge,[Element Ge],1,Ge4,0.0,0.243109495,6.212377263000351
mp-109,Si,[Element Si],1,Si4,0.0,0.29561939749999905,3.117831046882785
mp-1524805,Si,[Element Si],1,Si4,0.0,0.6645676274999981,3.095993362015338
mp-937760,C,[Element C],1,C4,0.0,0.006056227500000001,2.179840590962765
mp-1184687,Hg,[Element Hg],1,Hg4,0.0,0.019197834999999,12.360643331875458
mp-1063817,Rb,[Element Rb],1,Rb4,0.0,0.181163509999999,1.164221707219544
mp-77,S,[Element S],1,S32,2.5807,0.0,1.9196195297959862
mp-1120813,Br,[Element Br],1,Br32,1.4606,0.11358546468750001,1.628357171478946
mp-1018045,Rb,[Element Rb],1,Rb4,0.0,0.07453195499999901,1.4756046520957922
mp-571261,Pu,[Element Pu],1,Pu2,0.0,0.47009415125000903,23.301184324297633
mp-1056308,Sn,[Element Sn],1,Sn1,0.0,0.065968104999999,7.072305859132322
mp-630227,C,[Element C],1,C60,0.9121999999999991,0.39554219849999606,1.896712955744873
mp-998864,Br,[Element Br],1,Br1,0.0,0.08391820500000001,4.188805883337718
mp-1179414,Sn,[Element Sn],1,Sn8,0.0,0.09648671749999901,6.895898152329875
mp-639751,I,[Element I],1,I1,0.0,0.050646264999999004,4.703155668538265
mp-1077723,Zr,[Element Zr],1,Zr6,0.0,0.008909571666668,6.461360760435894