material_id,formula_pretty,elements,nelements,composition,band_gap,formation_energy_per_atom,density
mp-1184903,K3Nd,"[Element K, Element Nd]",2,K3 Nd1,0.0,0.545870468375,1.9104633485667022
mp-1184875,K3Ir,"[Element Ir, Element K]",2,K3 Ir1,0.0,0.722916290250001,4.027295276476897
mp-1184782,GePb3,"[Element Ge, Element Pb]",2,Ge1 Pb3,0.0,0.143421161250003,9.831127236158192
mp-1184745,HoBi3,"[Element Bi, Element Ho]",2,Ho1 Bi3,0.0,-0.41915749500000005,10.917752196816942
mp-1184729,Hf3Co,"[Element Co, Element Hf]",2,Hf3 Co1,0.0,0.12160398406250202,13.077209619054129
mp-1184772,Hf3Pb,"[Element Hf, Element Pb]",2,Hf3 Pb1,0.0,-0.07151459250000801,13.862076491648839
mp-1184897,K3Nb,"[Element K, Element Nb]",2,K3 Nb1,0.0,1.1389103102499991,1.8027445148695542
mp-1184797,Ir3Pb,"[Element Ir, Element Pb]",2,Ir3 Pb1,0.0,0.46111707499999705,19.55773199139217
mp-1184783,Ir3Se,"[Element Ir, Element Se]",2,Ir3 Se1,0.0,0.5234618366406131,17.705058103376462
mp-1184794,IrRh3,"[Element Ir, Element Rh]",2,Ir1 Rh3,0.0,-0.019203882500001,14.974902598257863
mp-1184743,GdHo3,"[Element Gd, Element Ho]",2,Gd1 Ho3,0.0,0.065049973749999,8.552133446060141
mp-1184784,IrPd3,"[Element Ir, Element Pd]",2,Ir1 Pd3,0.0,0.12758183749999902,14.062155407871003
mp-1184923,K3Hf,"[Element Hf, Element K]",2,K3 Hf1,0.0,1.14278572525,2.387475926307153
mp-1184929,In3Ni,"[Element In, Element Ni]",2,In3 Ni1,0.0,0.19528176416666201,7.949465455094601
mp-1184904,In3Ga,"[Element Ga, Element In]",2,In3 Ga1,0.0,0.0651437,7.063150424686529
mp-1184793,HfNp3,"[Element Hf, Element Np]",2,Hf1 Np3,0.0,0.5358863234374951,16.96169244366145
mp-1184801,GdU3,"[Element Gd, Element U]",2,Gd1 U3,0.0,0.5225564275000061,15.72643377994061
mp-1184907,K3Cd,"[Element Cd, Element K]",2,K3 Cd1,0.0,0.06695506718750001,1.9373031520793311
mp-1184916,K3Mn,"[Element K, Element Mn]",2,K3 Mn1,0.0,0.6507331607672421,1.450385727695535
mp-1184908,HoU3,"[Element Ho, Element U]",2,Ho1 U3,0.0,0.525822367499998,16.051065216565007
mp-1184910,K3Ba,"[Element Ba, Element K]",2,K3 Ba1,0.0,0.1440070020625,1.4923006016106402
mp-1184918,K3Li,"[Element K, Element Li]",2,K3 Li1,0.0,0.12250388941666601,0.888496456235619
mp-1184857,In3Pt,"[Element In, Element Pt]",2,In3 Pt1,0.0,-0.11342645666666501,10.317541088952863
mp-1184931,HoNp3,"[Element Ho, Element Np]",2,Ho1 Np3,0.0,0.6581419659375031,15.245334479909989
mp-1184898,K3Ga,"[Element Ga, Element K]",2,K3 Ga1,0.0,0.17991649518750003,1.652203241456948
mp-1184900,K3Dy,"[Element Dy, Element K]",2,K3 Dy1,0.0,0.588596825249998,2.060719447139384
mp-1185063,KPm3,"[Element K, Element Pm]",2,K1 Pm3,0.0,0.468592453624999,5.16490667139852
mp-1185110,K3Rh,"[Element K, Element Rh]",2,K3 Rh1,0.0,0.5740148152499991,2.623292459268136
mp-1185070,KCa3,"[Element Ca, Element K]",2,K1 Ca3,0.0,0.16767918675000001,1.395584388880665
mp-1185097,K3Zn,"[Element K, Element Zn]",2,K3 Zn1,0.0,0.154638635908652,1.435438334298319
mp-1185085,La3Zn,"[Element La, Element Zn]",2,La3 Zn1,0.0,-0.065753304999997,6.619268585939723
mp-1185042,KHg3,"[Element Hg, Element K]",2,K1 Hg3,0.0,-0.22236839906249603,8.9531932014525
mp-1185114,K3Re,"[Element K, Element Re]",2,K3 Re1,0.0,1.501891848999999,2.955129416115467
mp-1185123,K3Tb,"[Element K, Element Tb]",2,K3 Tb1,0.0,0.5861924727499991,2.036074463605461
mp-1184938,KH3,"[Element H, Element K]",2,K1 H3,0.0,0.9600211768750001,1.287691966719478
mp-1185026,KLi3,"[Element K, Element Li]",2,K1 Li3,0.0,0.17843251175000002,0.7876577794247981
mp-1185047,KMg3,"[Element K, Element Mg]",2,K1 Mg3,0.0,0.23504549175000003,1.557275203187417
mp-1185067,K3Co,"[Element Co, Element K]",2,K3 Co1,0.0,0.814396606499999,1.573410374893909
mp-1185096,La3Sc,"[Element La, Element Sc]",2,La3 Sc1,0.0,0.053741512500000005,5.717955198943358
mp-1185117,La3Nb,"[Element La, Element Nb]",2,La3 Nb1,0.0,0.35410314874999904,7.220168519955058
mp-1185124,LaNd3,"[Element La, Element Nd]",2,La1 Nd3,0.0,0.022646788125001,6.5832167630025165
mp-1185118,La3Yb,"[Element La, Element Yb]",2,La3 Yb1,0.0,0.025685472500004,6.951385637043156
mp-1185075,K3Ta,"[Element K, Element Ta]",2,K3 Ta1,0.0,1.408760500249998,2.672877710347451
mp-1185088,KSm3,"[Element K, Element Sm]",2,K1 Sm3,0.0,0.48170127049999606,5.340474333684281
mp-1185066,La3Hg,"[Element Hg, Element La]",2,La3 Hg1,0.0,-0.239515670625003,8.187894496208587
mp-1185059,K3Ru,"[Element K, Element Ru]",2,K3 Ru1,0.0,1.05000724775,2.344607725674036
mp-1185112,La3Pm,"[Element La, Element Pm]",2,La3 Pm1,0.0,0.023893924375002002,6.364434720507586
mp-1185087,K3W,"[Element K, Element W]",2,K3 W1,0.0,1.504486422749999,2.6759347852114743
mp-1185116,La3Cl,"[Element Cl, Element La]",2,La3 Cl1,0.0,-0.32165732962499705,5.9572843961213024
mp-1185082,KYb3,"[Element K, Element Yb]",2,K1 Yb3,0.0,0.5845951903124941,6.745422774280349
mp-1185077,K3Tc,"[Element K, Element Tc]",2,K3 Tc1,0.0,1.2071395989999991,1.977727337225836
mp-1185111,K3Pr,"[Element K, Element Pr]",2,K3 Pr1,0.0,0.532270904,1.8668672136069882
mp-1185120,K3Tl,"[Element K, Element Tl]",2,K3 Tl1,0.0,0.034306213729165,2.6253111888020593
mp-1185103,La3Tl,"[Element La, Element Tl]",2,La3 Tl1,0.0,-0.218453574583333,7.914394605606744
mp-1185093,K3Os,"[Element K, Element Os]",2,K3 Os1,0.0,1.347618730249998,3.587677278156357
mp-1185119,K3Rb,"[Element K, Element Rb]",2,K3 Rb1,0.0,0.037877297687500006,1.028937006821125
mp-1185109,La3Ta,"[Element La, Element Ta]",2,La3 Ta1,0.0,0.42831368625000005,8.423013168432336
mp-1185148,KCl3,"[Element Cl, Element K]",2,K1 Cl3,0.0,-1.035799976562499,2.032776402422387
mp-1185152,La3Tb,"[Element La, Element Tb]",2,La3 Tb1,0.0,0.028400061250003,6.632306002541072
mp-1185160,La3Tm,"[Element La, Element Tm]",2,La3 Tm1,0.0,0.031001431250004003,6.878844959417589
mp-1185147,La3Sm,"[Element La, Element Sm]",2,La3 Sm1,0.0,0.025316976249999002,6.446337365322204
mp-1185150,La3Nd,"[Element La, Element Nd]",2,La3 Nd1,0.0,0.021278054375002003,6.324390000370092
mp-1185157,K3Pm,"[Element K, Element Pm]",2,K3 Pm1,0.0,0.557607820874999,1.9252923574110832
mp-1185172,K3Th,"[Element K, Element Th]",2,K3 Th1,0.0,0.9557269152500001,2.7540877469426253
mp-1185252,LaPu3,"[Element La, Element Pu]",2,La1 Pu3,0.0,0.23358113874999703,12.17673022991101
mp-1185336,LiGe3,"[Element Ge, Element Li]",2,Li1 Ge3,0.0,0.005574185416666,5.152669948805963
mp-1185180,Li3B,"[Element B, Element Li]",2,Li3 B1,0.0,0.34400581479166603,1.1599659339964101
mp-1185200,Li3Au,"[Element Au, Element Li]",2,Li3 Au1,0.0,-0.39889066249999905,5.794539266938309
mp-1185156,LaCe3,"[Element Ce, Element La]",2,La1 Ce3,0.0,0.06554969249999901,8.350942350122532
mp-1185471,LiTb3,"[Element Li, Element Tb]",2,Li1 Tb3,0.0,0.182200714166665,6.917399031878562
mp-1185264,La3Eu,"[Element Eu, Element La]",2,La3 Eu1,0.0,0.055729098749999005,6.234597894738222
mp-1185165,La3Ru,"[Element La, Element Ru]",2,La3 Ru1,0.0,0.130612936249998,7.803383154260107
mp-1185258,Li3Pu,"[Element Li, Element Pu]",2,Li3 Pu1,0.0,0.383054847500002,4.630505010907771
mp-1185132,LaPr3,"[Element La, Element Pr]",2,La1 Pr3,0.0,0.030664879999999003,6.336057702979209
mp-1185139,K3V,"[Element K, Element V]",2,K3 V1,0.0,0.8820944327499991,1.432643246527682
mp-1185154,La3Ce,"[Element Ce, Element La]",2,La3 Ce1,0.0,0.07884624499999701,6.900172090384932
mp-1185253,LiTl3,"[Element Li, Element Tl]",2,Li1 Tl3,0.0,-0.081129934166668,9.85299574839074
mp-1185170,La3Lu,"[Element La, Element Lu]",2,La3 Lu1,0.0,0.028703077083335003,7.014552175570774
mp-1185173,K3Ti,"[Element K, Element Ti]",2,K3 Ti1,0.0,0.864234671916666,1.325256830302633
mp-1185455,LiRh3,"[Element Li, Element Rh]",2,Li1 Rh3,0.0,-0.078609514166668,9.568696944553352
mp-1185221,KEu3,"[Element Eu, Element K]",2,K1 Eu3,0.0,0.20506900424999902,3.9879050876872
mp-1185188,K3Zr,"[Element K, Element Zr]",2,K3 Zr1,0.0,0.978084337749999,1.668237635176675
mp-1185204,Li3Ni,"[Element Li, Element Ni]",2,Li3 Ni1,0.0,0.093283324999999,2.401551211717096
mp-1185133,LaPm3,"[Element La, Element Pm]",2,La1 Pm3,0.0,0.026785945624997,6.728165042646559
mp-1185275,LiPb3,"[Element Li, Element Pb]",2,Li1 Pb3,0.0,-0.11555884833333001,9.339186229763522
mp-1185257,LiY3,"[Element Li, Element Y]",2,Li1 Y3,0.0,0.193428984166667,3.806083413096016
mp-1185266,LiNi3,"[Element Li, Element Ni]",2,Li1 Ni3,0.0,0.06232831833333301,7.242594201128479
mp-1185298,K3Ce,"[Element Ce, Element K]",2,K3 Ce1,0.0,0.631775958999998,1.78789124760573
mp-1185223,LaTb3,"[Element La, Element Tb]",2,La1 Tb3,0.0,0.046481048749999004,7.6227561927918135
mp-1185332,LiGa3,"[Element Ga, Element Li]",2,Li1 Ga3,0.0,-0.158397344166665,5.567849324715847
mp-1185431,LiSi3,"[Element Li, Element Si]",2,Li1 Si3,0.0,0.23659022416666703,2.67652628427068
mp-1185461,LiSn3,"[Element Li, Element Sn]",2,Li1 Sn3,0.0,-0.12917458208333302,6.137243419841
mp-1185211,LaY3,"[Element La, Element Y]",2,La1 Y3,0.0,0.08369698624999701,4.886421878015205
mp-1185290,Li3W,"[Element Li, Element W]",2,Li3 W1,0.0,0.9752482049999991,5.306528259909113
mp-1185337,LiHg3,"[Element Hg, Element Li]",2,Li1 Hg3,0.0,-0.187883509791667,11.467979488473105
mp-1185411,LiEu3,"[Element Eu, Element Li]",2,Li1 Eu3,0.0,0.096557981666666,4.96072722806257
mp-1185469,LiYb3,"[Element Li, Element Yb]",2,Li1 Yb3,0.0,0.218127964583327,7.807202605788617
mp-1186053,Na3Nb,"[Element Na, Element Nb]",2,Na3 Nb1,0.0,0.9807586525862071,2.283884390495753
mp-1185606,La3Ho,"[Element Ho, Element La]",2,La3 Ho1,0.0,0.030852652500001004,6.7653752344816205
mp-1185793,Mg3Tc,"[Element Mg, Element Tc]",2,Mg3 Tc1,0.0,0.23734181249999903,3.991018767321449
mp-1185797,Mg3Te,"[Element Mg, Element Te]",2,Mg3 Te1,0.0,-0.239216677916666,3.442942032023138
mp-1186041,MnSn3,"[Element Mn, Element Sn]",2,Mn1 Sn3,0.0,0.26634080676724203,6.955543625938202
mp-1185792,Mg3Tl,"[Element Mg, Element Tl]",2,Mg3 Tl1,0.0,0.009534665416666002,5.069305733735914
mp-1185862,MgF3,"[Element F, Element Mg]",2,Mg1 F3,0.0,-2.3830391356250002,3.468952617991746
mp-1185519,LuRu3,"[Element Lu, Element Ru]",2,Lu1 Ru3,0.0,0.057154193333333006,12.376502584744486
mp-1186067,Na3Pd,"[Element Na, Element Pd]",2,Na3 Pd1,0.0,0.0056851175000000006,3.070879058598734
mp-1185848,MgAu3,"[Element Au, Element Mg]",2,Mg1 Au3,0.0,-0.388537566250001,14.736800023907147
mp-1185864,MgGe3,"[Element Ge, Element Mg]",2,Mg1 Ge3,0.0,0.08472127937500101,5.139785904608319
mp-1185909,MgNi3,"[Element Mg, Element Ni]",2,Mg1 Ni3,0.0,-0.041993493749999,6.8500813709983674
mp-1186009,MnTl3,"[Element Mn, Element Tl]",2,Mn1 Tl3,0.0,0.39060193801724,10.668195510039954
mp-1186031,Na3Cd,"[Element Cd, Element Na]",2,Na3 Cd1,0.0,-0.013631219784482002,2.578544671526544
mp-1186049,Na3Ir,"[Element Ir, Element Na]",2,Na3 Ir1,0.0,0.529464650086207,5.059586426919687
mp-1186050,Na3Hg,"[Element Hg, Element Na]",2,Na3 Hg1,0.0,-0.13042292937500102,4.041221111232156
mp-1185904,MgNb3,"[Element Mg, Element Nb]",2,Mg1 Nb3,0.0,0.27997325374999904,6.839742786189844
mp-1186034,Na3Ag,"[Element Ag, Element Na]",2,Na3 Ag1,0.0,0.054058643749999004,2.7759567990807863
mp-1186052,Na3Mn,"[Element Mn, Element Na]",2,Na3 Mn1,0.0,0.521118035603448,1.7706655008855892
mp-1185969,MgNp3,"[Element Mg, Element Np]",2,Mg1 Np3,0.0,0.6678939584375031,14.833718193235523
mp-1186025,Na3B,"[Element B, Element Na]",2,Na3 B1,0.0,0.8310165909568961,1.51641548635053
mp-1186072,Na3Rh,"[Element Na, Element Rh]",2,Na3 Rh1,0.0,0.356793420086207,3.166221458856776
mp-1186070,Na3Pr,"[Element Na, Element Pr]",2,Na3 Pr1,0.0,0.31525376133620603,2.428568449701684
mp-1185608,LaGd3,"[Element Gd, Element La]",2,La1 Gd3,0.0,0.10760802375001001,7.432552165411149
mp-1186083,Na3Sm,"[Element Na, Element Sm]",2,Na3 Sm1,0.0,0.34784715133620703,2.641478903219964
mp-1185866,MgGa3,"[Element Ga, Element Mg]",2,Mg1 Ga3,0.0,-0.06587122687499901,5.433669959597389
mp-1185879,MgHg3,"[Element Hg, Element Mg]",2,Mg1 Hg3,0.0,-0.051605020625004,11.603783408872939
mp-1185771,Mg2Pd,"[Element Mg, Element Pd]",2,Mg2 Pd1,0.0,-0.504959116666666,4.865423403929367
mp-1185795,Mg3Ru,"[Element Mg, Element Ru]",2,Mg3 Ru1,0.0,0.03589681125,4.115635734153813
mp-1185836,MgAg3,"[Element Ag, Element Mg]",2,Mg1 Ag3,0.0,-0.142501011249999,8.27369279822784
mp-1185990,MgTl3,"[Element Mg, Element Tl]",2,Mg1 Tl3,0.0,0.034320761249992005,9.728605305500372
mp-1186036,Na3Cu,"[Element Cu, Element Na]",2,Na3 Cu1,0.0,0.22388534508620603,2.171229924532288
mp-1185927,MgPd3,"[Element Mg, Element Pd]",2,Mg1 Pd3,0.0,-0.47933666999998803,9.328516025508714
mp-1185951,Mn3Br,"[Element Br, Element Mn]",2,Mn3 Br1,0.0,0.549812095301724,5.687170470990489
mp-1186012,MnIn3,"[Element In, Element Mn]",2,Mn1 In3,0.0,0.23839700301724,7.423684899273656
mp-1185611,Lu3Pu,"[Element Lu, Element Pu]",2,Lu3 Pu1,0.0,0.70538071,12.545736387903382
mp-1185856,MgCu3,"[Element Cu, Element Mg]",2,Mg1 Cu3,0.0,-0.023268631249999002,6.926022777623637
mp-1185983,MgTa3,"[Element Mg, Element Ta]",2,Mg1 Ta3,0.0,0.32145980825000103,12.684606550893623
mp-1186059,Na3Mo,"[Element Mo, Element Na]",2,Na3 Mo1,0.0,1.037157192586207,2.361836880727716
mp-1186066,Na3Ni,"[Element Na, Element Ni]",2,Na3 Ni1,0.0,0.419549607586207,2.221891763940675
mp-1186076,Na3Ru,"[Element Na, Element Ru]",2,Na3 Ru1,0.0,0.8420639300862061,3.073974912240059
mp-1186132,NaCa3,"[Element Ca, Element Na]",2,Na1 Ca3,0.0,0.081487712499999,1.408077519308356
mp-1186151,NaLi3,"[Element Li, Element Na]",2,Na1 Li3,0.0,0.043194687499999,0.729616427989859
mp-1186150,NaHo3,"[Element Ho, Element Na]",2,Na1 Ho3,0.0,0.314332133362068,6.875184194859097
mp-1186085,Na3Ta,"[Element Na, Element Ta]",2,Na3 Ta1,0.0,1.2411052825862061,3.628308867278379
mp-1186280,Nd3Ti,"[Element Nd, Element Ti]",2,Nd3 Ti1,0.0,0.25823270604166704,6.58478201544951
mp-1186272,Nd3Cu,"[Element Cu, Element Nd]",2,Nd3 Cu1,0.0,0.169491401875003,7.504978987709271
mp-1186176,NaSn3,"[Element Na, Element Sn]",2,Na1 Sn3,0.0,-0.034177707499999,5.992523197419909
mp-1186270,Nd3Hf,"[Element Hf, Element Nd]",2,Nd3 Hf1,0.0,0.20020298687499802,8.150887121508106
mp-1186287,Nd3Zn,"[Element Nd, Element Zn]",2,Nd3 Zn1,0.0,-0.031806130624998,7.125489670311418
mp-1186091,Na3Zn,"[Element Na, Element Zn]",2,Na3 Zn1,0.0,0.06887961934681801,1.915468027675869
mp-1186163,Np3As,"[Element As, Element Np]",2,Np3 As1,0.0,-0.33510648468750004,17.08123671998797
mp-1186273,Nd3I,"[Element I, Element Nd]",2,Nd3 I1,0.0,-0.224228334374999,6.961393080092501
mp-1186172,NaEu3,"[Element Eu, Element Na]",2,Na1 Eu3,0.0,0.09930256586206801,4.479561741192569
mp-1186165,Np3P,"[Element Np, Element P]",2,Np3 P1,0.0,-0.47238619355654504,17.237426855533187
mp-1186130,NpAg3,"[Element Ag, Element Np]",2,Np1 Ag3,0.0,0.337991995312499,10.682576969363948
mp-1186195,NaNp3,"[Element Na, Element Np]",2,Na1 Np3,0.0,1.090682916799565,12.95791601278703
mp-1186182,Np3Cd,"[Element Cd, Element Np]",2,Np3 Cd1,0.0,0.615703580937491,14.165539863668068
mp-1186202,NaY3,"[Element Na, Element Y]",2,Na1 Y3,0.0,0.29911880336206803,3.684145594308551
mp-1186217,NbAs3,"[Element As, Element Nb]",2,Nb1 As3,0.0,0.17685934187499802,7.293386085533329
mp-1186244,PmNd3,"[Element Nd, Element Pm]",2,Pm1 Nd3,0.0,0.019321415,6.8009065361062575
mp-1186250,Nd2Mg,"[Element Mg, Element Nd]",2,Nd2 Mg1,0.0,-0.037187956666665,5.450478816826092
mp-1186087,Na3Tc,"[Element Na, Element Tc]",2,Na3 Tc1,0.0,0.9917603938362051,2.620071191262533
mp-1186158,NaIn3,"[Element In, Element Na]",2,Na1 In3,0.0,-0.146254847499999,6.02810591243865
mp-1186263,Nd3Cd,"[Element Cd, Element Nd]",2,Nd3 Cd1,0.0,-0.09003496062499801,7.437475829671749
mp-1186156,Np3Hg,"[Element Hg, Element Np]",2,Np3 Hg1,0.0,0.549172922187494,15.587446791315513
mp-1186299,NdAs3,"[Element As, Element Nd]",2,Nd1 As3,0.0,-0.657691257500001,6.931124460154433
mp-1186189,NaTl3,"[Element Na, Element Tl]",2,Na1 Tl3,0.0,-0.09725801750000301,9.403052417905501
mp-1186093,Na3W,"[Element Na, Element W]",2,Na3 W1,0.0,1.370424620086206,3.6502453797171963
mp-1186109,NaAu3,"[Element Au, Element Na]",2,Na1 Au3,0.0,-0.212274088749999,13.728449386316031
mp-1186127,NaCd3,"[Element Cd, Element Na]",2,Na1 Cd3,0.0,-0.044948075344826005,6.765046491725234
mp-1186180,NaSc3,"[Element Na, Element Sc]",2,Na1 Sc3,0.0,0.38229223961206804,2.489669556455215
mp-1186284,Nd3Pa,"[Element Nd, Element Pa]",2,Nd3 Pa1,0.0,0.295364669374997,8.66149086883449
mp-1186386,NdPu3,"[Element Nd, Element Pu]",2,Nd1 Pu3,0.0,0.235618108124995,12.427802536603314
mp-1186443,PdPb3,"[Element Pb, Element Pd]",2,Pd1 Pb3,0.0,0.0209247075,11.435162388328797
mp-1186355,NpSe3,"[Element Np, Element Se]",2,Np1 Se3,0.0,-0.9493249064453131,9.44157910193939
mp-1186315,NdHo3,"[Element Ho, Element Nd]",2,Nd1 Ho3,0.0,0.046484584375001005,8.255342444817586
mp-1186365,OsAu3,"[Element Au, Element Os]",2,Os1 Au3,0.0,0.6549660350000011,18.905693944239648
mp-1186516,Pm3Ho,"[Element Ho, Element Pm]",2,Pm3 Ho1,0.0,0.028237218124999002,7.409928714602262
mp-1186368,PPt3,"[Element P, Element Pt]",2,P1 Pt3,0.0,0.090602854880948,16.479685155819215
mp-1186366,PAu3,"[Element Au, Element P]",2,P1 Au3,0.0,0.293499575505947,14.627884478932884
mp-1186371,PPb3,"[Element P, Element Pb]",2,P1 Pb3,0.0,0.25819438916666804,9.60171434562936
mp-1186512,Pm3Hg,"[Element Hg, Element Pm]",2,Pm3 Hg1,0.0,-0.22029903000000603,8.924122311307686
mp-1186518,Pm3I,"[Element I, Element Pm]",2,Pm3 I1,0.0,-0.209123269375,7.193258709559592
mp-1186513,Pm3Hf,"[Element Hf, Element Pm]",2,Pm3 Hf1,0.0,0.187712781874999,8.328417203760774
mp-1186529,Pm3Pa,"[Element Pa, Element Pm]",2,Pm3 Pa1,0.0,0.284328534374999,8.798159264579816
mp-1186301,NdDy3,"[Element Dy, Element Nd]",2,Nd1 Dy3,0.0,0.040463239375,8.071286319422784
mp-1186393,NpSc3,"[Element Np, Element Sc]",2,Np1 Sc3,0.0,0.337687964062499,6.36324100154623
mp-1186437,Pd3W,"[Element Pd, Element W]",2,Pd3 W1,0.0,0.011338474999998,14.075331812675376
mp-1186497,Pm3Cr,"[Element Cr, Element Pm]",2,Pm3 Cr1,0.0,0.36163629687500104,6.933651668558786
mp-1186445,Pd3I,"[Element I, Element Pd]",2,Pd3 I1,0.0,0.066566348749999,10.367330618673849
mp-1186523,Pm3Nd,"[Element Nd, Element Pm]",2,Pm3 Nd1,0.0,0.020390064999997,6.910124942754383
mp-1186415,PaTc3,"[Element Pa, Element Tc]",2,Pa1 Tc3,0.0,0.045221951249999004,12.951130254093014
mp-1186450,PdPt3,"[Element Pd, Element Pt]",2,Pd1 Pt3,0.0,-0.035304807499997,18.857775738926414
mp-1186520,PrDy3,"[Element Dy, Element Pr]",2,Pr1 Dy3,0.0,0.046864715833336006,7.966342712564154
mp-1186413,PaRe3,"[Element Pa, Element Re]",2,Pa1 Re3,0.0,0.30054441125000103,18.79982422363402
mp-1186493,Pm3Cd,"[Element Cd, Element Pm]",2,Pm3 Cd1,0.0,-0.13858239729166702,7.50437436818533
mp-1186350,NiIr3,"[Element Ir, Element Ni]",2,Ni1 Ir3,0.0,0.011985112499992,19.61110700237134
mp-1186382,Pa3Br,"[Element Br, Element Pa]",2,Pa3 Br1,0.0,-0.001191788749999,13.91079063472388
mp-1186517,Pm3Mg,"[Element Mg, Element Pm]",2,Pm3 Mg1,0.0,0.011170620625001002,6.103598740395785
mp-1186463,PdS3,"[Element Pd, Element S]",2,Pd1 S3,0.0,0.16538965656250101,3.716300334918061
mp-1186528,Pm3Pd,"[Element Pd, Element Pm]",2,Pm3 Pd1,0.0,-0.151489580625003,8.132201488273548
mp-1186442,Pd3Rh,"[Element Pd, Element Rh]",2,Pd3 Rh1,0.0,0.05344216000000301,11.826928936795131
mp-1186488,Pm3Ag,"[Element Ag, Element Pm]",2,Pm3 Ag1,0.0,0.014181133541665001,7.681297012934772
mp-1186535,PmAs3,"[Element As, Element Pm]",2,Pm1 As3,0.0,-0.560228806249998,7.094186046687444
mp-1186494,Pm3Au,"[Element Au, Element Pm]",2,Pm3 Au1,0.0,-0.26779109312499805,9.26688256993223
mp-1186502,Pm3Er,"[Element Er, Element Pm]",2,Pm3 Er1,0.0,0.032902696041663,7.476110208973142
mp-1186526,Pm3Pr,"[Element Pm, Element Pr]",2,Pm3 Pr1,0.0,0.024317488958335003,6.817286770984421
mp-1186511,Pm3Cu,"[Element Cu, Element Pm]",2,Pm3 Cu1,0.0,0.156636944374994,7.4862534504925184
mp-1186584,PmHo3,"[Element Ho, Element Pm]",2,Pm1 Ho3,0.0,0.044099546875003004,8.322173906477659
mp-1186724,Pr3Nd,"[Element Nd, Element Pr]",2,Pr3 Nd1,0.0,0.028783311874999003,6.492721308230333
mp-1186708,Pr3Dy,"[Element Dy, Element Pr]",2,Pr3 Dy1,0.0,0.0373587925,6.910441114001905
mp-1186722,Pr3Nb,"[Element Nb, Element Pr]",2,Pr3 Nb1,0.0,0.398208008749999,7.151545706724855
mp-1186735,Pr3Y,"[Element Pr, Element Y]",2,Pr3 Y1,0.0,0.044607141250001,5.976784979942813