material_id,formula_pretty,elements,nelements,composition,band_gap,formation_energy_per_atom,density
mp-1103692,Ce3Rh2,"[Element Ce, Element Rh]",2,Ce9 Rh6,0.0,-0.610885177,8.605467735186961
mp-1080636,CeSe2,"[Element Ce, Element Se]",2,Ce24 Se48,0.9595,-1.410051446840277,2.38724159179295
mp-1103851,Ce3Pd4,"[Element Ce, Element Pd]",2,Ce6 Pd8,0.0,-0.795990699999999,8.884038791325349
mp-1104088,Tb3Pd4,"[Element Pd, Element Tb]",2,Tb6 Pd8,0.0,-0.9608774950000011,10.370195330276319
mp-1104294,Ce3Pt4,"[Element Ce, Element Pt]",2,Ce6 Pt8,0.0,-1.208953496428567,12.819645409945283
mp-1104184,Pr3Pd4,"[Element Pd, Element Pr]",2,Pr6 Pd8,0.0,-0.78738206357143,8.788294682534522
mp-1104164,Ba3Au2,"[Element Au, Element Ba]",2,Ba9 Au6,0.0,-0.6060228466666711,6.913467687544681
mp-1104199,Nd3Pd4,"[Element Nd, Element Pd]",2,Nd6 Pd8,0.0,-0.817927728214286,9.0843218011567
mp-1104136,Er3Pt4,"[Element Er, Element Pt]",2,Er6 Pt8,0.0,-1.3734129114285691,15.341053637628956
mp-1104303,La3Ir2,"[Element Ir, Element La]",2,La9 Ir6,0.0,-0.6879023709999991,9.969284303733309
mp-1104074,Sr3Pt2,"[Element Pt, Element Sr]",2,Sr9 Pt6,0.0,-0.788311620666668,7.240513297142619
mp-1104774,Er3Pd4,"[Element Er, Element Pd]",2,Er6 Pd8,0.0,-0.9930854264285681,11.085333553480988
mp-1105083,Th3Pd4,"[Element Pd, Element Th]",2,Th6 Pd8,0.0,-0.83230533928571,11.675871068044437
mp-1104457,Eu3Au2,"[Element Au, Element Eu]",2,Eu9 Au6,0.0,-0.6917288836666691,9.415120517247919
mp-1104311,Sm3Pd4,"[Element Pd, Element Sm]",2,Sm6 Pd8,0.0,-0.8891924821428581,9.603705831052912
mp-1104856,La3Pt4,"[Element La, Element Pt]",2,La6 Pt8,0.0,-1.255423561428569,12.16887738782248
mp-1104814,Ho3Ni2,"[Element Ho, Element Ni]",2,Ho9 Ni6,0.0,-0.356165809666661,9.426576723756002
mp-1104495,La3Rh2,"[Element La, Element Rh]",2,La9 Rh6,0.0,-0.661728863000001,7.798771754848716
mp-1104675,Tm3Pd4,"[Element Pd, Element Tm]",2,Tm6 Pd8,0.0,-1.008149207857144,11.277147405831373
mp-1104664,Dy3Pt4,"[Element Dy, Element Pt]",2,Dy6 Pt8,0.0,-1.352226254285718,14.791097427221379
mp-1104731,Ce3Pt2,"[Element Ce, Element Pt]",2,Ce9 Pt6,0.0,-0.9558694916666731,10.477373600151083
mp-1104435,La3Pd4,"[Element La, Element Pd]",2,La6 Pd8,0.0,-0.8653539514285691,8.501295285550993
mp-1105001,Tm3Pt4,"[Element Pt, Element Tm]",2,Tm6 Pt8,0.0,-1.38835468071429,15.592189943785739
mp-1104743,Nd3Rh2,"[Element Nd, Element Rh]",2,Nd9 Rh6,0.0,-0.6155601004999991,8.362611536673384
mp-1104698,Eu3Pt2,"[Element Eu, Element Pt]",2,Eu9 Pt6,0.0,-0.863424837000002,9.96155219719594
mp-1104399,Dy3Pd4,"[Element Dy, Element Pd]",2,Dy6 Pd8,0.0,-0.9725688092857101,10.630860793725581
mp-1104877,Lu3Pt4,"[Element Lu, Element Pt]",2,Lu6 Pt8,0.0,-1.402308182857138,16.157705903951545
mp-1199295,Cd41Ir8,"[Element Cd, Element Ir]",2,Cd41 Ir8,0.0,-0.09903641612244601,9.81848501138588
mp-1104661,Ca3Pd2,"[Element Ca, Element Pd]",2,Ca9 Pd6,0.0,-0.6149498026666661,4.252253134914384
mp-1104388,Y3Pd2,"[Element Pd, Element Y]",2,Y9 Pd6,0.0,-0.7358642346666671,6.483488500542819
mp-1104800,Sm3Pt4,"[Element Pt, Element Sm]",2,Sm6 Pt8,0.0,-1.1353961221428501,13.526359387454
mp-1104753,La3Pt2,"[Element La, Element Pt]",2,La9 Pt6,0.0,-1.073694968333332,9.586397779943782
mp-1195805,Ga41Mo8,"[Element Ga, Element Mo]",2,Ga41 Mo8,0.0,-0.13333408198979602,7.224920737673452
mp-1104864,Tb3Pt4,"[Element Pt, Element Tb]",2,Tb6 Pt8,0.0,-1.34001133142857,14.47888711509161
mp-1105286,Eu3Pd2,"[Element Eu, Element Pd]",2,Eu9 Pd6,0.0,-0.630571121000002,7.964700841370956
mp-1203190,Mn2O3,"[Element Mn, Element O]",2,Mn32 O48,0.21880000000000002,-1.937513764297413,5.003428008135471
mp-1215377,Zr4O,"[Element O, Element Zr]",2,Zr12 O3,0.0,-1.240729299,6.611601408616027
mp-1226090,Co5Te6,"[Element Co, Element Te]",2,Co5 Te6,0.0,-0.07194367636363701,8.181557430374221
mp-1217180,Ti2Te3,"[Element Te, Element Ti]",2,Ti4 Te6,0.0,-0.8479457976666681,6.1816663328216315
mp-1396578,TeF6,"[Element F, Element Te]",2,Te1 F6,4.4352,-2.1618070442857142,4.000502433354701
mp-1215634,Zr2Te3,"[Element Te, Element Zr]",2,Zr4 Te6,0.0,-1.074035194999999,6.490426617857651
mp-1217357,Te8Ir3,"[Element Ir, Element Te]",2,Te8 Ir3,0.0,-0.304145084545459,9.638961297368919
mp-1224444,Hf2Te3,"[Element Hf, Element Te]",2,Hf4 Te6,0.0,-0.8996846329999981,8.760712651771573
mp-1250639,SiO2,"[Element O, Element Si]",2,Si120 O240,5.6677,-3.257945191138889,1.715610772064383
mp-12612,Ba3Ag2,"[Element Ag, Element Ba]",2,Ba9 Ag6,0.0,-0.22483739799999902,4.987606549285319
mp-1227465,Ca4Zn51,"[Element Ca, Element Zn]",2,Ca4 Zn51,0.0,-0.153462634545454,6.385063295813661
mp-12699,Ca3Au4,"[Element Au, Element Ca]",2,Ca6 Au8,0.0,-0.8282316014285731,9.246370262074029
mp-12788,Nd3Au4,"[Element Au, Element Nd]",2,Nd6 Au8,0.0,-0.808723337500002,11.890447794167887
mp-1407,Rh3Se8,"[Element Rh, Element Se]",2,Rh3 Se8,0.0,-0.45499951749999906,7.149939393421271
mp-1227723,Eu4Zn51,"[Element Eu, Element Zn]",2,Eu4 Zn51,0.0,-0.179616348909091,7.320690795205997
mp-1237171,KPu,"[Element K, Element Pu]",2,K6 Pu6,0.0,0.853701061833334,5.190208484819485
mp-1218673,Sr4Zn51,"[Element Sr, Element Zn]",2,Sr4 Zn51,0.0,-0.195849453943182,6.591678818847328
mp-12712,Zr3Pd4,"[Element Pd, Element Zr]",2,Zr6 Pd8,0.0,-0.7294412378571451,9.17509928795635
mp-1391848,CrF6,"[Element Cr, Element F]",2,Cr1 F6,2.0863,-2.063723397142856,3.155265675525009
mp-23269,WCl3,"[Element Cl, Element W]",2,W6 Cl18,0.0641,-0.8674048647916661,4.914574256313532
mp-1544909,P3Pd7,"[Element P, Element Pd]",2,P6 Pd14,0.0,-0.48823736239285404,9.393543476269963
mp-17391,Sm3Rh2,"[Element Rh, Element Sm]",2,Sm9 Rh6,0.0,-0.6699710589999951,8.917582031209665
mp-23165,PtBr3,"[Element Br, Element Pt]",2,Pt12 Br36,0.8929,-0.6577550981249981,6.378534429348612
mp-17659,Mg23Al30,"[Element Al, Element Mg]",2,Mg23 Al30,0.0,-0.010167054999999,2.220290763927569
mp-1524446,PdF3,"[Element F, Element Pd]",2,Pd2 F6,1.0487,-1.452075918750001,5.321380357867303
mp-2164,Mo3S4,"[Element Mo, Element S]",2,Mo6 S8,0.0,-0.763310599464288,5.050765740431783
mp-23218,AsI3,"[Element As, Element I]",2,As2 I6,2.2375,-0.47864313937499803,4.447894935673874
mp-17717,Pu3Pd4,"[Element Pd, Element Pu]",2,Pu6 Pd8,0.0,-0.290216773749993,12.834545067099452
mp-22083,Tb7O12,"[Element O, Element Tb]",2,Tb7 O12,0.0,-3.609492971403508,7.748097874860102
mp-23204,FeCl3,"[Element Cl, Element Fe]",2,Fe2 Cl6,0.0,-1.091268719999999,2.7573776826129013
mp-21965,V8Ga41,"[Element Ga, Element V]",2,V8 Ga41,0.0,-0.175336283469389,6.634325165825342
mp-22437,Re6P13,"[Element P, Element Re]",2,Re12 P26,0.0,-0.42469362293859003,8.37898507998168
mp-23275,TiCl3,"[Element Cl, Element Ti]",2,Ti2 Cl6,0.0,-1.779362912291647,2.510175119475105
mp-22849,BiI3,"[Element Bi, Element I]",2,Bi2 I6,2.5349,-0.7663869175000011,5.324512983950062
mp-21021,Mo3Se4,"[Element Mo, Element Se]",2,Mo6 Se8,0.0,-0.5819315730357171,6.516933641366628
mp-23232,FeBr3,"[Element Br, Element Fe]",2,Fe2 Br6,0.0,-0.7636172024999981,4.270878160926458
mp-22671,Pr7O12,"[Element O, Element Pr]",2,Pr7 O12,0.0,-3.400514501140351,6.162566650685973
mp-23186,Sc7Cl12,"[Element Cl, Element Sc]",2,Sc7 Cl12,0.0,-2.00367983973684,2.7669157191217373
mp-28483,WBr6,"[Element Br, Element W]",2,W1 Br6,1.069899999999999,-0.9345107228571431,4.953223801878239
mp-2629,Ce7O12,"[Element Ce, Element O]",2,Ce7 O12,0.0,-3.917592265263155,6.58807703070408
mp-27734,CrBr3,"[Element Br, Element Cr]",2,Cr6 Br18,1.2759,-1.21740412,4.353329389229361
mp-2832,Cr2Se3,"[Element Cr, Element Se]",2,Cr4 Se6,0.0,-0.8104281324062481,5.53633266844788
mp-30066,Sb7Pd20,"[Element Pd, Element Sb]",2,Sb7 Pd20,0.0,-0.43480283555555604,11.03711445528964
mp-28117,VCl3,"[Element Cl, Element V]",2,V2 Cl6,0.0,-1.523692374374999,2.741354861083581
mp-23309,ScCl3,"[Element Cl, Element Sc]",2,Sc2 Cl6,3.8723,-2.343001440624999,2.322312633108773
mp-2426125,Mg9Sn5,"[Element Mg, Element Sn]",2,Mg18 Sn10,0.0,-0.15896228749999902,3.934083811869327
mp-28241,ZrI2,"[Element I, Element Zr]",2,Zr6 I12,0.07540000000000001,-1.086330604444443,5.311545895104019
mp-24043,H2O,"[Element H, Element O]",2,H24 O12,5.4391,-1.2744305002777772,1.321090483136175
mp-23281,SbI3,"[Element I, Element Sb]",2,Sb2 I6,2.1446,-0.643452289999999,4.741073521538678
mp-27127,Te4O9,"[Element O, Element Te]",2,Te8 O18,2.2225,-1.45228178628205,5.844461352020299
mp-29639,Te7Pd20,"[Element Pd, Element Te]",2,Te7 Pd20,0.0,-0.280321600370366,10.790050229842755
mp-28495,ZrBr2,"[Element Br, Element Zr]",2,Zr6 Br12,0.0,-1.591170617777777,4.886094587309282
mp-27533,P2Pd15,"[Element P, Element Pd]",2,P2 Pd15,0.0,-0.25358000642856804,10.786229164061526
mp-29487,PdCl2,"[Element Cl, Element Pd]",2,Pd6 Cl12,1.5592000000000001,-0.5866676483333321,3.9756679315509373
mp-31134,PtCl3,"[Element Cl, Element Pt]",2,Pt12 Cl36,0.9465000000000001,-0.502917241458334,5.175187974041475
mp-30421,Sr3Au2,"[Element Au, Element Sr]",2,Sr9 Au6,0.0,-0.681544805999999,6.54859518047132
mp-30357,Sr3Ag2,"[Element Ag, Element Sr]",2,Sr9 Ag6,0.0,-0.215496192,4.438097531147944
mp-559550,SiO2,"[Element O, Element Si]",2,Si6 O12,5.6097,-3.256951121666668,1.868431237049268
mp-510350,SbN9,"[Element N, Element Sb]",2,Sb2 N18,2.8646000000000003,0.5930840256250001,2.773846561371212
mp-540546,Er3Ni2,"[Element Er, Element Ni]",2,Er9 Ni6,0.0,-0.38296291133333404,9.687484552570325
mp-558115,SiO2,"[Element O, Element Si]",2,Si40 O80,5.6668,-3.258587647666667,1.700326126656106
mp-555569,Cr2S3,"[Element Cr, Element S]",2,Cr4 S6,0.0,-0.9933775114999971,3.764567640433815
mp-567504,CrCl3,"[Element Cl, Element Cr]",2,Cr2 Cl6,1.5182,-1.425545254374999,2.832861229191603
mp-559389,SiO2,"[Element O, Element Si]",2,Si6 O12,4.3826,-3.015123637777778,2.717592874984484
mp-558569,SiO2,"[Element O, Element Si]",2,Si24 O48,5.738099999999999,-3.194217924722222,2.199084582884471
mp-614777,NiF3,"[Element F, Element Ni]",2,Ni2 F6,0.0,-1.9186620925,4.543954278394464
mp-571537,ZrCl2,"[Element Cl, Element Zr]",2,Zr6 Cl12,0.0,-1.804783084444445,3.560112493442379
mp-567653,Ti3Ni4,"[Element Ni, Element Ti]",2,Ti6 Ni8,0.0,-0.41299813285714204,6.971992094364225
mp-571518,WCl6,"[Element Cl, Element W]",2,W1 Cl6,1.9169,-0.9463817178571441,3.448793954493857
mp-567950,U11Ni16,"[Element Ni, Element U]",2,U22 Ni32,0.0,-0.250923754814811,14.546714474807557
mp-571442,YI3,"[Element I, Element Y]",2,Y2 I6,3.0417,-1.710965791249998,4.303066624414245
mp-752989,Ti8O13,"[Element O, Element Ti]",2,Ti8 O13,0.11139999999999901,-3.353443061984128,4.05272694356993
mp-753829,Cr2O3,"[Element Cr, Element O]",2,Cr4 O6,0.0,-2.290160125,4.855297906867757
mp-683965,C2F,"[Element C, Element F]",2,C72 F36,2.1158,-0.5493599442824071,2.106907917295483
mp-571065,TiBr3,"[Element Br, Element Ti]",2,Ti2 Br6,0.0,-1.620029079583333,3.9784010791121833
mp-570734,Pr3Pt4,"[Element Pr, Element Pt]",2,Pr6 Pt8,0.0,-1.04803470428572,12.51113564090111
mp-685068,YbBr3,"[Element Br, Element Yb]",2,Yb2 Br6,0.0,-2.146652140625001,4.9426941819141375
mp-705414,Fe13O14,"[Element Fe, Element O]",2,Fe13 O14,0.0,-1.45207582148148,5.469700615946762
mp-669546,AlPd,"[Element Al, Element Pd]",2,Al13 Pd13,0.0,-0.9276591973076921,7.726936450930941
mp-754624,Al2O3,"[Element Al, Element O]",2,Al4 O6,5.6671,-3.351824882000001,3.806598544022501
mp-685155,ZrCl3,"[Element Cl, Element Zr]",2,Zr2 Cl6,0.0,-1.889158658125001,2.954752769184344
mp-754455,Sc2O3,"[Element O, Element Sc]",2,Sc4 O6,4.053,-3.8714628999999983,3.694187737244951
mp-7273,Te8Rh3,"[Element Rh, Element Te]",2,Te8 Rh3,0.0,-0.39801768818181804,8.02705641206605
mp-984698,Ca3Pt2,"[Element Ca, Element Pt]",2,Ca9 Pt6,0.0,-0.9107599013333351,6.745508034545837
mp-764326,Fe12O13,"[Element Fe, Element O]",2,Fe12 O13,0.0,-1.444204812199998,5.447533811415816
mp-8601,Te4Mo3,"[Element Mo, Element Te]",2,Te8 Mo6,0.0,-0.30248188428571304,7.163857356139552
mp-765724,VF4,"[Element F, Element V]",2,V6 F24,1.8525,-2.991243158333333,2.852816472157931
mp-867575,Mn7F16,"[Element F, Element Mn]",2,Mn7 F16,1.4016,-2.856739288065966,3.701522292675347
mp-865377,Th3Au4,"[Element Au, Element Th]",2,Th6 Au8,0.0,-0.6677042071428531,14.249155870758065
mp-9888,Ir3Se8,"[Element Ir, Element Se]",2,Ir3 Se8,0.0,-0.361656984772728,9.182385356169405
mp-583463,FeCl3,"[Element Cl, Element Fe]",2,Fe6 Cl18,0.4268,-1.164680918333334,2.79528438994453
mp-753629,Zr2O,"[Element O, Element Zr]",2,Zr12 O6,0.0,-1.990846132222222,6.854541899733948
mp-568230,TiCl3,"[Element Cl, Element Ti]",2,Ti6 Cl18,0.0,-1.779658966041649,2.4974387875818342
mp-1220654,Nb5S8,"[Element Nb, Element S]",2,Nb15 S24,0.0,-1.40351744051282,4.815034847738142
mp-557812,Ti3O,"[Element O, Element Ti]",2,Ti18 O6,0.0,-1.565612353541665,4.890996522584021
mp-673635,Fe3N,"[Element Fe, Element N]",2,Fe24 N8,0.0,-0.15478422531249802,7.452146892118575
mp-10497,SrC2,"[Element C, Element Sr]",2,Sr2 C4,2.2919,-0.12732163499999802,3.197374714442928
mp-1094307,Sr2Mg,"[Element Mg, Element Sr]",2,Sr4 Mg2,0.0,0.055802619999999005,2.553105706764236
mp-1039390,Ca2Mg,"[Element Ca, Element Mg]",2,Ca4 Mg2,0.0,0.018847423333332003,1.641628787001045
mp-1066856,AgO,"[Element Ag, Element O]",2,Ag2 O2,0.0,-0.43385250083333204,6.803873473451433
mp-10390,Ta2O5,"[Element O, Element Ta]",2,Ta4 O10,1.2267000000000001,-3.346563131380951,8.7289892060389
mp-1001,BaN2,"[Element Ba, Element N]",2,Ba2 N4,0.0,-0.7517035683333341,4.869658575599328
mp-1094374,Mg2Ti,"[Element Mg, Element Ti]",2,Mg4 Ti2,0.0,0.25658926388888803,2.585907684802161
mp-1071539,KO2,"[Element K, Element O]",2,K2 O4,0.4978,-0.780211839083332,0.5153763349175391
mp-1094316,SrMg2,"[Element Mg, Element Sr]",2,Sr2 Mg4,0.0,0.068178416666666,2.355856714526888
mp-1080278,CeSe2,"[Element Ce, Element Se]",2,Ce8 Se16,0.620799999999999,-1.402564453229165,2.961413155476943
mp-1094187,LaMg2,"[Element La, Element Mg]",2,La2 Mg4,0.0,0.0043046283333320005,3.671518957596494
mp-1065190,AgO,"[Element Ag, Element O]",2,Ag2 O2,0.0,-0.43706012333333105,7.138368094620301
mp-1079684,NO,"[Element N, Element O]",2,N4 O4,0.1824,0.452041768749999,1.428707280212341
mp-1080326,CeSe2,"[Element Ce, Element Se]",2,Ce4 Se8,1.0191,-1.400557791562498,2.488947005904374
mp-1080677,Tl2Se3,"[Element Se, Element Tl]",2,Tl4 Se6,0.8149999999999991,-0.26140730843749704,7.450626748720227
mp-1039058,MgBi2,"[Element Bi, Element Mg]",2,Mg2 Bi4,0.0,0.016969308333331,8.342838965878407
mp-1064300,KC,"[Element C, Element K]",2,K2 C2,0.5801000000000001,2.308801037515626,1.443952620715259
mp-1078904,Sb2Te3,"[Element Sb, Element Te]",2,Sb4 Te6,0.0,-0.250896692999998,6.501334680120627
mp-1075796,Mg3Si2,"[Element Mg, Element Si]",2,Mg6 Si4,0.0,0.009467989999999002,2.25587032256007
mp-1038946,CaMg2,"[Element Ca, Element Mg]",2,Ca2 Mg4,0.0,-0.007551448333333001,1.725193515419336
mp-1039605,Ce2Mg,"[Element Ce, Element Mg]",2,Ce4 Mg2,0.0,0.028015755555552004,6.369567937593051
mp-1078667,GeH4,"[Element Ge, Element H]",2,Ge2 H8,1.142199999999999,0.257843023,2.172416945180703
mp-1080323,CeSe2,"[Element Ce, Element Se]",2,Ce6 Se12,0.5556000000000001,-1.801962757118055,4.984545243247178
mp-1039548,CeMg2,"[Element Ce, Element Mg]",2,Ce2 Mg4,0.0,0.050904734444443,4.024879094471034
mp-1004532,CCl4,"[Element C, Element Cl]",2,C16 Cl64,4.5103,-0.165710175249999,1.8943217597820192
mp-1080261,CeSe2,"[Element Ce, Element Se]",2,Ce4 Se8,0.9878,-1.401656796562498,2.025978588472237
mp-1094139,Ni2O5,"[Element Ni, Element O]",2,Ni4 O10,0.0,-0.18489941428571402,4.601136817709952
mp-1094233,MgSn2,"[Element Mg, Element Sn]",2,Mg2 Sn4,0.0,-0.022895358333332002,5.6198020111458
mp-10293,BaC2,"[Element Ba, Element C]",2,Ba2 C4,2.1291,0.08324176999999901,3.741073309352728
mp-1077301,EuC2,"[Element C, Element Eu]",2,Eu2 C4,0.0,-0.17995474833333203,5.6624940616671875
mp-1080277,CeSe2,"[Element Ce, Element Se]",2,Ce6 Se12,0.971499999999999,-1.40103990767361,2.695878043879583
mp-1094203,La2Mg,"[Element La, Element Mg]",2,La4 Mg2,0.0,-0.016662350000001002,5.168943838154913
mp-1094694,MgCd2,"[Element Cd, Element Mg]",2,Mg2 Cd4,0.0,-0.030387518333332003,6.516129464882764
mp-1096965,CrN2,"[Element Cr, Element N]",2,Cr28 N56,0.0995,-0.10921227720238101,1.942417740037188
mp-1103964,Er5Ir2,"[Element Er, Element Ir]",2,Er10 Ir4,0.0,-0.69769362142857,11.360037788955859
mp-1096903,CrN2,"[Element Cr, Element N]",2,Cr4 N8,0.0,-0.113066352083331,2.487054765902191
mp-1097017,KFe,"[Element Fe, Element K]",2,K2 Fe2,0.0,1.026204258875,2.292708028540026
mp-1094404,YMg2,"[Element Mg, Element Y]",2,Y2 Mg4,0.0,0.031622371666667,2.872449007839249
mp-1094461,MgZn2,"[Element Mg, Element Zn]",2,Mg2 Zn4,0.0,-0.038520529999999005,5.043374832445449
mp-1103570,Ca5Pt2,"[Element Ca, Element Pt]",2,Ca10 Pt4,0.0,-0.7358550721428561,4.807284507780022
mp-1094381,MgTi2,"[Element Mg, Element Ti]",2,Mg2 Ti4,0.0,0.158698269444444,3.614326753127939
mp-1094570,LiMg2,"[Element Li, Element Mg]",2,Li2 Mg4,0.0,-0.024159343888888,1.44459685273746
mp-1094682,MgGa2,"[Element Ga, Element Mg]",2,Mg2 Ga4,0.0,-0.075494736666666,4.95405572380455
mp-1103758,CeAu6,"[Element Au, Element Ce]",2,Ce2 Au12,0.0,-0.378347973571433,15.73790474913547
mp-1104413,Eu5Pt2,"[Element Eu, Element Pt]",2,Eu10 Pt4,0.0,-0.6839428435714341,8.701536552893778
mp-1103978,Tb5Ir2,"[Element Ir, Element Tb]",2,Tb10 Ir4,0.0,-0.6385937890476181,10.544584213272753
mp-1094607,Li2Mg,"[Element Li, Element Mg]",2,Li4 Mg2,0.0,-0.024295922777778003,1.047974875206484
mp-1102672,Sr2Al,"[Element Al, Element Sr]",2,Sr8 Al4,0.0,-0.01727903941358,2.8426966736397423
mp-1103691,Er5Ru2,"[Element Er, Element Ru]",2,Er10 Ru4,0.0,-0.39130597714285503,9.827592187665857
mp-1094634,Mg2Ga,"[Element Ga, Element Mg]",2,Mg4 Ga2,0.0,-0.030175714166666003,3.314639908853243
mp-1096909,CrN2,"[Element Cr, Element N]",2,Cr4 N8,0.0,-0.13105101291666602,1.957989897520112
mp-1097055,K5La2,"[Element K, Element La]",2,K10 La4,0.0,0.442717417142856,1.800793639634701
mp-1104417,La5Ru2,"[Element La, Element Ru]",2,La10 Ru4,0.0,-0.272794881428576,7.074110638552661
mp-1094468,Mg2Zn,"[Element Mg, Element Zn]",2,Mg4 Zn2,0.0,-0.0033351200000000004,3.329700698836221
mp-1096907,CrN2,"[Element Cr, Element N]",2,Cr6 N12,0.0,-0.11797450236111001,2.696867882721244
mp-1104150,Tm5Ru2,"[Element Ru, Element Tm]",2,Tm10 Ru4,0.0,-0.40419193285714805,9.988027457546888
mp-1094414,Y2Mg,"[Element Mg, Element Y]",2,Y4 Mg2,0.0,0.050934843333333,3.8151750182347453
mp-1096935,CrN2,"[Element Cr, Element N]",2,Cr6 N12,0.0,-0.030380240694442003,4.319426425550915
mp-1094985,Mg2Cd,"[Element Cd, Element Mg]",2,Mg4 Cd2,0.0,-0.037900704999999,4.185817683937458
mp-1096908,CrN2,"[Element Cr, Element N]",2,Cr8 N16,0.11709999999999901,-0.11715176458333301,2.996351100780876
mp-1104365,Y5Ir2,"[Element Ir, Element Y]",2,Y10 Ir4,0.0,-0.6121371178571431,7.419334287556518
mp-1094529,Mg2Sn,"[Element Mg, Element Sn]",2,Mg4 Sn2,0.0,-0.045337581666666,3.880239446299123
mp-1104159,Sm5Ru2,"[Element Ru, Element Sm]",2,Sm10 Ru4,0.0,-0.290340404999998,8.30751410459464
mp-1104396,La5Ir2,"[Element Ir, Element La]",2,La10 Ir4,0.0,-0.5585718857142881,8.35429659112303
mp-1094595,Mg2Sb,"[Element Mg, Element Sb]",2,Mg4 Sb2,0.0,-0.18352505166666602,3.966352598540511
mp-1095665,CaO2,"[Element Ca, Element O]",2,Ca4 O8,0.0,-1.923206321666665,2.813572885062423
mp-1100786,Ni11As8,"[Element As, Element Ni]",2,Ni22 As16,0.0,-0.30720481342105205,8.161232815845183
mp-1103979,Nd5Ru2,"[Element Nd, Element Ru]",2,Nd10 Ru4,0.0,-0.236989397499996,7.7189164512222685
mp-1104160,Pr5Ir2,"[Element Ir, Element Pr]",2,Pr10 Ir4,0.0,-0.547416631190474,8.710907564598601
mp-1104610,Eu5Pd2,"[Element Eu, Element Pd]",2,Eu10 Pd4,0.0,-0.47608382571428703,7.198593047023903
mp-1104820,Ho5Ru2,"[Element Ho, Element Ru]",2,Ho10 Ru4,0.0,-0.363316775714281,9.579645343265685
mp-1179195,Si2O3,"[Element O, Element Si]",2,Si20 O30,0.9888999999999991,-2.165350534,1.739295903080365
mp-1104605,Nd5Ir2,"[Element Ir, Element Nd]",2,Nd10 Ir4,0.0,-0.590957939642854,9.076337881142026
mp-1104652,Nd5Co2,"[Element Co, Element Nd]",2,Nd10 Co4,0.0,0.020939414642859002,7.3458168533017965
mp-1104898,Y5Ru2,"[Element Ru, Element Y]",2,Y10 Ru4,0.0,-0.303035516428571,5.877691139951522