material_id,formula_pretty,elements,nelements,composition,band_gap,formation_energy_per_atom,density
mp-1189469,Pr7Ni3,"[Element Ni, Element Pr]",2,Pr14 Ni6,0.0,-0.171183464666665,7.028642932477939
mp-1187162,SrF,"[Element F, Element Sr]",2,Sr2 F2,0.0,-2.8368514116666663,3.33187220020051
mp-1187503,TlP,"[Element P, Element Tl]",2,Tl2 P2,0.0,0.217334221178571,6.827340170864544
mp-1189759,Pr7Ir3,"[Element Ir, Element Pr]",2,Pr14 Ir6,0.0,-0.5581225121666641,8.942742184911033
mp-1189031,La7Rh3,"[Element La, Element Rh]",2,La14 Rh6,0.0,-0.539572708500001,7.115091833743528
mp-1323723,Mo3O8,"[Element Mo, Element O]",2,Mo6 O16,0.0,-1.6266839363636372,4.274101857833662
mp-13286,CaGe2,"[Element Ca, Element Ge]",2,Ca2 Ge4,0.0,-0.551371273333335,4.361316092281189
mp-18257,Fe7C3,"[Element C, Element Fe]",2,Fe14 C6,0.0,0.081094369999999,7.818178010203184
mp-2542,BeO,"[Element Be, Element O]",2,Be2 O2,7.463900000000001,-3.102855802499999,3.019437108902679
mp-2562,MnS,"[Element Mn, Element S]",2,Mn2 S2,0.0,-1.1258302186476281,3.36542574685967
mp-22894,AgI,"[Element Ag, Element I]",2,Ag2 I2,1.3877000000000002,-0.46514602333333405,5.492736317536004
mp-2811,MoN,"[Element Mo, Element N]",2,Mo8 N8,0.0,-0.546220418749999,9.060552769297692
mp-30809,Th7Ni3,"[Element Ni, Element Th]",2,Th14 Ni6,0.0,-0.278086436999998,11.539520739430017
mp-18014,Th7Fe3,"[Element Fe, Element Th]",2,Th14 Fe6,0.0,-0.123428199499994,11.800802550818275
mp-24093,CuH,"[Element Cu, Element H]",2,Cu2 H2,0.5729000000000001,0.11516825312499901,6.811156611572919
mp-19128,CoO,"[Element Co, Element O]",2,Co2 O2,0.7120000000000001,-1.27141856625,5.374821193673203
mp-24669,CrH,"[Element Cr, Element H]",2,Cr2 H2,0.0,0.16589954750000002,5.936731882174295
mp-2653,BN,"[Element B, Element N]",2,B2 N2,5.197599999999999,-1.318274873125002,3.4520052090517592
mp-28248,CdI2,"[Element Cd, Element I]",2,Cd2 I4,2.365599999999999,-0.8269342623333321,5.253512674747468
mp-30565,Th7Co3,"[Element Co, Element Th]",2,Th14 Co6,0.0,-0.152962933999992,11.821484668575673
mp-27934,CdBr2,"[Element Br, Element Cd]",2,Cd2 Br4,2.9381,-1.2261671650000001,4.994927346993619
mp-1920,Ni5P4,"[Element Ni, Element P]",2,Ni20 P16,0.0,-0.48926179882275106,6.469627102491977
mp-2133,ZnO,"[Element O, Element Zn]",2,Zn2 O2,0.7227,-1.7908991124999991,5.70421780686615
mp-22205,InN,"[Element In, Element N]",2,In2 N2,0.0,-0.11770066687499801,6.835816933007001
mp-30770,LuMn5,"[Element Lu, Element Mn]",2,Lu2 Mn10,0.0,0.176616293113026,9.23084731362005
mp-1975124,K2O,"[Element K, Element O]",2,K4 O2,2.2661,-1.113121837083333,2.385004808907458
mp-30422,Sr7Au3,"[Element Au, Element Sr]",2,Sr14 Au6,0.0,-0.517273361500002,5.184704707674482
mp-30612,Er7Rh3,"[Element Er, Element Rh]",2,Er14 Rh6,0.0,-0.6477011499999991,9.992244981376341
mp-31164,Ce7Ru3,"[Element Ce, Element Ru]",2,Ce14 Ru6,0.0,-0.270621242999997,8.605333899769322
mp-561196,ZnS,"[Element S, Element Zn]",2,Zn14 S14,2.0271,-0.9624634303348211,4.140159333304246
mp-561286,ZnS,"[Element S, Element Zn]",2,Zn20 S20,2.0218,-0.9625883041562501,4.138610788290733
mp-561258,ZnS,"[Element S, Element Zn]",2,Zn10 S10,2.0288,-0.9623525084062501,4.140162483905286
mp-380,ZnSe,"[Element Se, Element Zn]",2,Zn2 Se2,1.2004000000000001,-0.947540998671876,5.27537563285386
mp-567503,PbI2,"[Element I, Element Pb]",2,Pb2 I4,2.4455,-0.9218665316666631,5.697440278090774
mp-567290,LaN,"[Element La, Element N]",2,La2 N2,1.1169,-1.558962584374999,5.7872308255119504
mp-567551,SiC,"[Element C, Element Si]",2,Si16 C16,1.970600000000001,-0.3058941746875,3.227568011754725
mp-567505,SiC,"[Element C, Element Si]",2,Si8 C8,1.7772000000000001,-0.305883413125,3.227418141231847
mp-549706,MgO,"[Element Mg, Element O]",2,Mg2 O2,3.3701,-2.9202671775,2.8349493556912693
mp-560588,ZnS,"[Element S, Element Zn]",2,Zn2 S2,2.0701,-0.959653981406251,4.13715785761638
mp-561118,ZnS,"[Element S, Element Zn]",2,Zn8 S8,2.0338,-0.9621595995312511,4.14165224561266
mp-567542,PbI2,"[Element I, Element Pb]",2,Pb4 I8,2.3829000000000002,-0.921080175833331,5.640852125684076
mp-560725,ZnS,"[Element S, Element Zn]",2,Zn16 S16,2.0215,-0.962524704218751,4.140452495126357
mp-574272,Ca5Pb3,"[Element Ca, Element Pb]",2,Ca30 Pb18,0.0,-0.5045842702083311,5.053682049862982
mp-570935,LiI,"[Element I, Element Li]",2,Li2 I2,4.3818,-1.422324364166667,3.409051003868403
mp-573601,Th7Ru3,"[Element Ru, Element Th]",2,Th14 Ru6,0.0,-0.423836497499996,11.783278559515443
mp-568263,GaSe,"[Element Ga, Element Se]",2,Ga8 Se8,1.2121,-0.69001870828125,4.850188151865577
mp-571094,Th7Ir3,"[Element Ir, Element Th]",2,Th14 Ir6,0.0,-0.728711456500002,13.158269729136585
mp-570557,NbCo3,"[Element Co, Element Nb]",2,Nb6 Co18,0.0,-0.07446270541666601,9.003407474216944
mp-569074,Th7Pt3,"[Element Pt, Element Th]",2,Th14 Pt6,0.0,-0.8122725660000011,12.958153024464263
mp-570089,CdI2,"[Element Cd, Element I]",2,Cd12 I24,2.3967,-0.8267437428888881,5.336322456128245
mp-7140,SiC,"[Element C, Element Si]",2,Si2 C2,2.302899999999999,-0.3018005825,3.226255951846587
mp-573855,La7Ni3,"[Element La, Element Ni]",2,La14 Ni6,0.0,-0.226433312500001,6.6982398477253575
mp-616476,FeS,"[Element Fe, Element S]",2,Fe8 S8,0.0,-0.48473417749999903,5.543554670583626
mp-569346,CuI,"[Element Cu, Element I]",2,Cu2 I2,1.211999999999999,-0.33453556833333103,5.803190190456613
mp-569802,Si3Ir,"[Element Ir, Element Si]",2,Si6 Ir2,0.0,0.061390532604168005,7.231855059873617
mp-569994,CdI2,"[Element Cd, Element I]",2,Cd4 I8,2.3621,-0.8269528823333331,5.2477798203895984
mp-661,AlN,"[Element Al, Element N]",2,Al2 N2,4.0467,-1.6796721718749992,3.200889713142437
mp-580941,AgI,"[Element Ag, Element I]",2,Ag4 I4,1.3759000000000001,-0.46775989833333204,5.809898805745882
mp-569819,Th7Os3,"[Element Os, Element Th]",2,Th14 Os6,0.0,-0.37607980100000304,13.179939963852448
mp-7132,DySe,"[Element Dy, Element Se]",2,Dy2 Se2,0.0,-1.526211024531246,6.338569645842648
mp-672,CdS,"[Element Cd, Element S]",2,Cd2 S2,1.125,-0.7766083889062491,4.702284793707707
mp-570054,CdI2,"[Element Cd, Element I]",2,Cd8 I16,2.3541,-0.8268164127499991,5.351142724020805
mp-755489,MnO2,"[Element Mn, Element O]",2,Mn8 O16,0.8718,-1.777182686810347,4.8295562895215145
mp-971863,ZnP,"[Element P, Element Zn]",2,Zn2 P2,0.0,0.039131972886906,4.046572149805696
mp-8881,AlAs,"[Element Al, Element As]",2,Al2 As2,1.686999999999999,-0.619637686249999,3.708645605340462
mp-8880,AlP,"[Element Al, Element P]",2,Al2 P2,1.9532999999999991,-0.732814428988096,2.347986071086355
mp-754765,FeO,"[Element Fe, Element O]",2,Fe4 O4,0.0,-1.018648521249999,4.438798650362561
mp-7631,SiC,"[Element C, Element Si]",2,Si6 C6,2.022999999999999,-0.305938795833333,3.227773317409295
mp-863656,PmH,"[Element H, Element Pm]",2,Pm2 H2,0.0,-0.48860257062500106,6.349869465787258
mp-971820,ZnH,"[Element H, Element Zn]",2,Zn2 H2,0.0,0.32673314999999903,5.333619175564023
mp-756587,TiO2,"[Element O, Element Ti]",2,Ti8 O16,2.3165,-3.390097015694445,3.8197632625774283
mp-971911,ZnN,"[Element N, Element Zn]",2,Zn2 N2,0.0,0.519967328124998,5.65812075428553
mp-755508,CoO2,"[Element Co, Element O]",2,Co8 O16,0.0,-1.004605635,5.182529935579118
mp-804,GaN,"[Element Ga, Element N]",2,Ga2 N2,1.726499999999999,-0.670049406875,6.080976820120369
mp-972036,WN,"[Element N, Element W]",2,W2 N2,0.0,-0.174125285208337,13.757847285639572
mp-7868,PtO2,"[Element O, Element Pt]",2,Pt2 O4,1.5362,-0.8706233616666661,10.346470471159828
mp-866056,AcN,"[Element Ac, Element N]",2,Ac2 N2,0.0517,-1.322563138124998,8.01361833485228
mp-7926,TaSe2,"[Element Se, Element Ta]",2,Ta4 Se8,0.0,-0.9311195659861131,7.988540833176069
mp-966800,InP,"[Element In, Element P]",2,In2 P2,0.527999999999999,-0.354339883988092,4.704869604456656
mp-8884,ZnTe,"[Element Te, Element Zn]",2,Zn2 Te2,1.100299999999999,-0.6789112758333321,5.610196464017319
mp-864928,BrCl,"[Element Br, Element Cl]",2,Br2 Cl2,1.3235000000000001,-0.26356420750000004,2.401656937346041
mp-8883,GaAs,"[Element As, Element Ga]",2,Ga2 As2,0.22380000000000003,-0.44081263125000003,5.280739317994743
mp-8882,GaP,"[Element Ga, Element P]",2,Ga2 P2,1.3002,-0.5004573739880961,4.131501206922352
mp-776911,MgO,"[Element Mg, Element O]",2,Mg4 O4,3.4246,-2.8999533087500002,2.816647553146497
mp-973674,HgN,"[Element Hg, Element N]",2,Hg2 N2,0.0,1.415452025,10.140738777966124
mp-978989,Tc7B3,"[Element B, Element Tc]",2,Tc14 B6,0.0,-0.34875773925000103,10.231837330639777
mp-978928,SnCl,"[Element Cl, Element Sn]",2,Sn2 Cl2,0.0,-0.550427714374999,4.8029549055672796
mp-974469,ReTe,"[Element Re, Element Te]",2,Re2 Te2,0.0,0.5755139504166661,12.477076873200366
mp-978886,SnB,"[Element B, Element Sn]",2,Sn2 B2,0.0,0.771170680416666,5.713651153668774
mp-973785,PbN,"[Element N, Element Pb]",2,Pb2 N2,0.0,0.661620464999998,9.024154586219664
mp-999539,MnO,"[Element Mn, Element O]",2,Mn2 O2,0.0,-1.9740157427155172,4.349905951768193
mp-978534,SiGe,"[Element Ge, Element Si]",2,Si2 Ge2,0.40890000000000004,0.030787385,3.9278554095617233
mp-974315,RuI,"[Element I, Element Ru]",2,Ru2 I2,0.0,0.677549499999999,7.246199378849178
mp-973936,NiI,"[Element I, Element Ni]",2,Ni2 I2,0.0,-0.053076927499999,6.296658273488529
mp-975142,RhI,"[Element I, Element Rh]",2,Rh2 I2,0.0,0.1834307,7.065742320932789
mp-975657,PrH,"[Element H, Element Pr]",2,Pr2 H2,0.0,-0.45577605604166305,5.820368500487359
mp-984718,BAs,"[Element As, Element B]",2,B2 As2,1.1428,-0.032509467291665005,5.097157656422205
mp-999540,MnSe,"[Element Mn, Element Se]",2,Mn2 Se2,0.0,-0.949901936772628,4.28190631081759
mp-973933,NiN,"[Element N, Element Ni]",2,Ni2 N2,0.0,0.31252968416666604,5.975263663295776
mp-976280,LiBr,"[Element Br, Element Li]",2,Li2 Br2,4.9348,-1.8358945341666661,2.903220847578415
mp-9984,SnS2,"[Element S, Element Sn]",2,Sn2 S4,1.4856999999999991,-0.473668063541666,4.205587972220278
mp-973976,LuBr,"[Element Br, Element Lu]",2,Lu2 Br2,0.0,-1.195112173333333,7.610492628537964
mp-980194,TiI,"[Element I, Element Ti]",2,Ti2 I2,0.0,-0.080128371666667,5.6919319387436715
mp-978495,SiB,"[Element B, Element Si]",2,Si2 B2,0.0,0.38237791604166405,2.524396216179016
mp-999517,MnN,"[Element Mn, Element N]",2,Mn2 N2,0.0,-0.23715261442887903,5.7519717049263335
mp-9946,ZnS,"[Element S, Element Zn]",2,Zn6 S6,2.0368,-0.9620232339062491,4.140241530894832
mp-984598,AuS,"[Element Au, Element S]",2,Au2 S2,0.0,0.05658852601562701,8.32725904758751
mp-999355,NbN,"[Element N, Element Nb]",2,Nb2 N2,0.0,-0.863648566874999,6.598441819071261
mp-974474,ReBr,"[Element Br, Element Re]",2,Re2 Br2,0.0,1.046157041249999,12.34611366669478
mp-984728,BC,"[Element B, Element C]",2,B2 C2,0.0,0.48102527302083303,2.79761587462252
mp-999503,MoN,"[Element Mo, Element N]",2,Mo2 N2,0.0,-0.298578174999999,7.615078493850746
mp-973676,HgS,"[Element Hg, Element S]",2,Hg2 S2,0.0,-0.373950982500003,7.374683608341191
mp-1001827,IrC,"[Element C, Element Ir]",2,Ir1 C1,0.0,1.220723241249999,15.743475237164242
mp-1008661,AuC,"[Element Au, Element C]",2,Au1 C1,0.0,2.247474876249999,12.95637362834994
mp-1001925,LaC,"[Element C, Element La]",2,La1 C1,0.0,0.42367704850000004,6.359075908527065
mp-1008762,TaN2,"[Element N, Element Ta]",2,Ta1 N2,0.0,-0.695192232305553,10.88087357023235
mp-1008832,HfC,"[Element C, Element Hf]",2,Hf1 C1,0.0,-0.359463005000002,11.99905789051877
mp-1009015,IrN,"[Element Ir, Element N]",2,Ir1 N1,0.0,1.346545957500005,15.779252231710036
mp-1009219,HfN2,"[Element Hf, Element N]",2,Hf1 N2,0.0,-1.034273426666665,9.765632530166249
mp-1009551,PbS,"[Element Pb, Element S]",2,Pb1 S1,0.0,-0.6602365037499981,7.240792291249548
mp-1009049,IrN2,"[Element Ir, Element N]",2,Ir1 N2,0.0,0.7889554699999951,11.715738756912797
mp-1008809,PtN2,"[Element N, Element Pt]",2,Pt1 N2,0.0,0.682314279999999,10.564934120882995
mp-1002197,RuN,"[Element N, Element Ru]",2,Ru1 N1,0.0,0.7324957925000001,9.300248470398586
mp-1002188,TcB,"[Element B, Element Tc]",2,Tc1 B1,0.0,-0.313511430340909,8.537337390037479
mp-1009735,ReC,"[Element C, Element Re]",2,Re1 C1,0.0,0.225445643125006,16.15080801019541
mp-1016256,HfMg7,"[Element Hf, Element Mg]",2,Hf1 Mg7,0.0,0.12849961812500002,3.213683067861183
mp-1016262,Mg7B,"[Element B, Element Mg]",2,Mg7 B1,0.0,0.348933864374998,1.868153849747233
mp-1008798,ReN2,"[Element N, Element Re]",2,Re1 N2,0.0,0.19997644986111102,12.347281917327493
mp-1009817,TaC,"[Element C, Element Ta]",2,Ta1 C1,0.0,-0.246991968666666,13.738953177572585
mp-1009838,ZrN,"[Element N, Element Zr]",2,Zr1 N1,0.0,-1.6033470418750042,6.92374906421429
mp-1008835,OsC2,"[Element C, Element Os]",2,Os1 C2,0.0,0.6011552450000011,12.408761947172612
mp-1009767,AgN,"[Element Ag, Element N]",2,Ag1 N1,0.0,1.544426379166667,7.992634066576969
mp-1016265,Mg7Ti,"[Element Mg, Element Ti]",2,Mg7 Ti1,0.0,0.125712793958333,2.047054464826836
mp-1009129,MgO,"[Element Mg, Element O]",2,Mg1 O1,3.0483,-2.700812314999999,3.34101416919779
mp-10030,RuC,"[Element C, Element Ru]",2,Ru1 C1,0.0,0.649427671250002,9.378281415452644
mp-1008805,ReC2,"[Element C, Element Re]",2,Re1 C2,0.0,0.453227296249996,11.960563422508114
mp-1009732,RhN,"[Element N, Element Rh]",2,Rh1 N1,0.0,0.9106934174999991,9.13043965518094
mp-1009649,PrN,"[Element N, Element Pr]",2,Pr1 N1,0.0079,-1.188911605208332,7.334854065674466
mp-1016252,Mg7Ga,"[Element Ga, Element Mg]",2,Mg7 Ga1,0.0,-0.001618809062499,2.32875521253336
mp-1016253,Mg7Cd,"[Element Cd, Element Mg]",2,Mg7 Cd1,0.0,0.006154626874999,2.692782205271771
mp-1016264,CsMg7,"[Element Cs, Element Mg]",2,Cs1 Mg7,0.0,0.29545554275862,2.167920467883928
mp-1009601,PdN,"[Element N, Element Pd]",2,Pd1 N1,0.0,1.139062712499999,8.812387794769943
mp-1009648,PtC,"[Element C, Element Pt]",2,Pt1 C1,0.0,1.5707331862499991,15.01321655259429
mp-1014138,ZrB,"[Element B, Element Zr]",2,Zr2 B2,0.0,-0.468956122500001,5.72151125337928
mp-1016268,SrMg7,"[Element Mg, Element Sr]",2,Sr1 Mg7,0.0,0.05567659988839101,2.021585307168786
mp-1008965,CdN,"[Element Cd, Element N]",2,Cd1 N1,0.0,0.994917862499999,7.307466834424701
mp-1009646,ReN,"[Element N, Element Re]",2,Re1 N1,0.0,0.5569382272916701,16.22901640782547
mp-1016346,CeMg7,"[Element Ce, Element Mg]",2,Ce1 Mg7,0.0,0.047736538124997,2.503420036665137
mp-1016272,Mg7C,"[Element C, Element Mg]",2,Mg7 C1,0.0,0.5467097403125001,1.924372412414103
mp-1016279,Mg7Zn,"[Element Mg, Element Zn]",2,Mg7 Zn1,0.0,0.027453055625000004,2.322091409627571
mp-1016298,Mg7V,"[Element Mg, Element V]",2,Mg7 V1,0.0,0.18396058437499901,2.116679392509112
mp-1016316,LaMg7,"[Element La, Element Mg]",2,La1 Mg7,0.0,0.045811386249999,2.487872628289513
mp-1016281,Mg7Mo,"[Element Mg, Element Mo]",2,Mg7 Mo1,0.0,0.23357130187500003,2.6745371678148233
mp-1016331,Mg7Nb,"[Element Mg, Element Nb]",2,Mg7 Nb1,0.0,0.18167606687500001,2.530843294139372
mp-1016276,CaMg7,"[Element Ca, Element Mg]",2,Ca1 Mg7,0.0,0.022201684617345,1.734790426224702
mp-1016274,LiMg7,"[Element Li, Element Mg]",2,Li1 Mg7,0.0,-0.005217091458333,1.671212244010234
mp-1016269,Mg7W,"[Element Mg, Element W]",2,Mg7 W1,0.0,0.28898236000000005,3.569474267783902
mp-1016271,Mg7Al,"[Element Al, Element Mg]",2,Mg7 Al1,0.0,0.041225045625000005,1.902196582589161
mp-1016325,RbMg7,"[Element Mg, Element Rb]",2,Rb1 Mg7,0.0,0.26411669468750004,1.889413319917408
mp-1023493,LiMg15,"[Element Li, Element Mg]",2,Li1 Mg15,0.0,0.002009268645832,1.730931314079648
mp-1017987,Tc3N,"[Element N, Element Tc]",2,Tc3 N1,0.0,-0.22337149218749902,10.718076731364421
mp-1023478,HfMg15,"[Element Hf, Element Mg]",2,Hf1 Mg15,0.0,0.07120114031250001,2.488021060198412
mp-1023488,Mg15Sb,"[Element Mg, Element Sb]",2,Mg15 Sb1,0.0,-0.010234745937499,2.244130440854926
mp-1023489,Mg15Cd,"[Element Cd, Element Mg]",2,Mg15 Cd1,0.0,0.021134764062500002,2.239761891963397
mp-1023495,Mg15Bi,"[Element Bi, Element Mg]",2,Mg15 Bi1,0.0,0.0168663821875,2.609205557945791
mp-1023496,Mg15Mo,"[Element Mg, Element Mo]",2,Mg15 Mo1,0.0,0.1302564128125,2.19747512800876
mp-1023507,Mg15Mn,"[Element Mg, Element Mn]",2,Mg15 Mn1,0.0,0.08273786794181001,1.971114507750031
mp-1016317,Mg7Fe,"[Element Fe, Element Mg]",2,Mg7 Fe1,0.0,0.17388214312500003,2.348868166707704
mp-1023492,Mg15W,"[Element Mg, Element W]",2,Mg15 W1,0.0,0.14661040250000001,2.635786863566156
mp-1023509,Mg15Si,"[Element Mg, Element Si]",2,Mg15 Si1,0.0,0.058707445937500005,1.843223353984409
mp-1016284,Mg7Zr,"[Element Mg, Element Zr]",2,Mg7 Zr1,0.0,0.084462398125,2.39244383594046
mp-1016333,BaMg7,"[Element Ba, Element Mg]",2,Ba1 Mg7,0.0,0.12086028687500001,2.305556589108753
mp-1016282,Mg7Mn,"[Element Mg, Element Mn]",2,Mg7 Mn1,0.0,0.14106083463362,2.315786247910669
mp-1023508,CaMg15,"[Element Ca, Element Mg]",2,Ca1 Mg15,0.0,0.022977440937499,1.779245106476814
mp-1023510,YMg15,"[Element Mg, Element Y]",2,Y1 Mg15,0.0,0.029271707812499003,2.014856940495558
mp-1016285,Mg7Cu,"[Element Cu, Element Mg]",2,Mg7 Cu1,0.0,0.033928098437498,2.328740298160608
mp-1016293,KMg7,"[Element K, Element Mg]",2,K1 Mg7,0.0,0.17497448837499902,1.625875292800425
mp-1016319,Mg7Si,"[Element Mg, Element Si]",2,Mg7 Si1,0.0,0.08007099687500001,1.938072252644651
mp-1018050,CrC,"[Element C, Element Cr]",2,Cr1 C1,0.0,-0.001850867499999,6.388820500944768
mp-1023498,KMg15,"[Element K, Element Mg]",2,K1 Mg15,0.0,0.10105966356250001,1.699804640158625
mp-1023490,Mg15Cr,"[Element Cr, Element Mg]",2,Mg15 Cr1,0.0,0.10054906406250001,1.939101268416316
mp-1023497,Mg15C,"[Element C, Element Mg]",2,Mg15 C1,0.0,0.27725512953125,1.8289539236096952
mp-1018028,TiS,"[Element S, Element Ti]",2,Ti1 S1,0.0,-1.719362965416666,4.46294849945536
mp-1023506,Mg15Al,"[Element Al, Element Mg]",2,Mg15 Al1,0.0,0.039757760937499005,1.849547684623938
mp-1023499,NaMg15,"[Element Mg, Element Na]",2,Na1 Mg15,0.0,0.052847097001706006,1.7220276034311972
mp-1016301,Mg7Ni,"[Element Mg, Element Ni]",2,Mg7 Ni1,0.0,0.054310525625,2.407199626837359
mp-1016277,YMg7,"[Element Mg, Element Y]",2,Y1 Mg7,0.0,0.028712138124999002,2.221537206869478
mp-1016270,Mg7Sb,"[Element Mg, Element Sb]",2,Mg7 Sb1,0.0,-0.055485074374999006,2.627053251988116
mp-1023502,Mg15Nb,"[Element Mg, Element Nb]",2,Mg15 Nb1,0.0,0.09907729531250001,2.149558043622014
mp-1016326,Mg7Cr,"[Element Cr, Element Mg]",2,Mg7 Cr1,0.0,0.163549669374999,2.121756537610511
mp-1016327,Mg7Bi,"[Element Bi, Element Mg]",2,Mg7 Bi1,0.0,-1.450625000565253e-06,3.356456000498844
mp-1016310,Mg7Co,"[Element Co, Element Mg]",2,Mg7 Co1,0.0,0.12433716343749901,2.358979823589361
mp-1016323,NaMg7,"[Element Mg, Element Na]",2,Na1 Mg7,0.0,0.07460670101481101,1.6775512947320301
mp-1018027,VN,"[Element N, Element V]",2,V1 N1,0.0,-1.352527919374999,6.3080594141393025
mp-1023503,Mg15Ga,"[Element Ga, Element Mg]",2,Mg15 Ga1,0.0,0.01789643796875,2.054786555604772
mp-1016305,Mg7Sn,"[Element Mg, Element Sn]",2,Mg7 Sn1,0.0,-0.015956671249999003,2.679196537887319
mp-1023593,Mg15Sn,"[Element Mg, Element Sn]",2,Mg15 Sn1,0.0,0.008929396249999,2.2332410574963912
mp-1023515,Mg15B,"[Element B, Element Mg]",2,Mg15 B1,0.0,0.17783865718749903,1.8101482031211962
mp-1025576,Te2Mo,"[Element Mo, Element Te]",2,Te6 Mo3,0.623,-0.29963138,5.042525862195315
mp-1023611,Mg15V,"[Element Mg, Element V]",2,Mg15 V1,0.0,0.1087833540625,1.937506807148829
mp-1023610,Mg15Cu,"[Element Cu, Element Mg]",2,Mg15 Cu1,0.0,0.035471845937499004,2.076084790779318
mp-1023583,BaMg15,"[Element Ba, Element Mg]",2,Ba1 Mg15,0.0,0.1023801928125,2.066135583137183
mp-1023926,Te2W,"[Element Te, Element W]",2,Te2 W1,1.0785,-0.062490436666668,3.8199676102635802
mp-1023937,WS2,"[Element S, Element W]",2,W1 S2,1.8091,-0.8694221118750011,2.767699068307199
mp-1023936,WSe2,"[Element Se, Element W]",2,W1 Se2,1.5378,-0.587869466041667,3.573360344539247
mp-1023568,CsMg15,"[Element Cs, Element Mg]",2,Cs1 Mg15,0.0,0.17694652950431,2.010893789960906
mp-1023632,Mg15Fe,"[Element Fe, Element Mg]",2,Mg15 Fe1,0.0,0.1077810359375,2.040239500941481
mp-1023633,CeMg15,"[Element Ce, Element Mg]",2,Ce1 Mg15,0.0,0.045760455312499004,2.213221583910507
mp-1023511,SrMg15,"[Element Mg, Element Sr]",2,Sr1 Mg15,0.0,0.04203376859375001,1.904248464720669
mp-1038829,MgCd,"[Element Cd, Element Mg]",2,Mg1 Cd1,0.0,-0.039326680833331004,5.294064061719