material_id,formula_pretty,elements,nelements,composition,band_gap,formation_energy_per_atom,density
mp-2771569,CdS,"[Element Cd, Element S]",2,Cd1 S1,1.4908000000000001,-0.524941121406248,2.62854959802318
mp-637232,TaSe2,"[Element Se, Element Ta]",2,Ta4 Se8,0.0,-0.9313639584861111,8.00408158158911
mp-219,MoP,"[Element Mo, Element P]",2,Mo1 P1,0.0,-0.696001868988094,7.308129077004535
mp-279,LiIr,"[Element Ir, Element Li]",2,Li1 Ir1,0.0,-0.28409317833333203,12.45683302362025
mp-643063,NbSe2,"[Element Nb, Element Se]",2,Nb4 Se8,0.0,-0.958146983541666,5.9126403632349795
mp-755264,TiO,"[Element O, Element Ti]",2,Ti1 O1,0.0,-2.827090324166667,5.491461420617172
mp-7142,OsC,"[Element C, Element Os]",2,Os1 C1,0.0,0.9160852612500001,16.344273040301225
mp-2646987,InO,"[Element In, Element O]",2,In2 O2,0.40490000000000004,-1.435393110833332,2.6490811896599613
mp-567885,C3N4,"[Element C, Element N]",2,C6 N8,1.4341,0.14755611107142702,2.17914575945711
mp-571270,NbSe2,"[Element Nb, Element Se]",2,Nb4 Se8,0.0,-0.9589825927083331,5.92746670345682
mp-7760,AlSn,"[Element Al, Element Sn]",2,Al1 Sn1,0.0,0.2070903175,4.793270592807986
mp-865430,YTe,"[Element Te, Element Y]",2,Y1 Te1,0.0,-1.510585778333334,6.053300509530963
mp-2634,NbN,"[Element N, Element Nb]",2,Nb1 N1,0.0,-1.246791244375,8.003657776241376
mp-2647020,MoP2,"[Element Mo, Element P]",2,Mo1 P2,0.0,0.026527066349205004,2.218536432162659
mp-567677,GeI2,"[Element Ge, Element I]",2,Ge1 I2,1.964999999999999,-0.47543319499999903,4.220594916285615
mp-672271,NbSe2,"[Element Nb, Element Se]",2,Nb4 Se8,0.0,-0.6120571935416661,5.5610071492483595
mp-867841,GaTc,"[Element Ga, Element Tc]",2,Ga1 Tc1,0.0,-0.09147015499999901,9.652778716012458
mp-973245,KLu,"[Element K, Element Lu]",2,K1 Lu1,0.0,0.5695006434999991,4.478142355078572
mp-866755,LiMg149,"[Element Li, Element Mg]",2,Li1 Mg149,0.5707,0.007047052522221001,1.794488779442545
mp-867290,TbTe,"[Element Tb, Element Te]",2,Tb1 Te1,0.0,-1.549852165,7.9956379617800675
mp-971933,YZr,"[Element Y, Element Zr]",2,Y1 Zr1,0.0,0.11260126166666401,5.454318727405002
mp-973740,MgAs,"[Element As, Element Mg]",2,Mg1 As1,0.0,-0.516920165062499,3.776892641053717
mp-975591,NdHf,"[Element Hf, Element Nd]",2,Nd1 Hf1,0.0,0.287282426249994,9.670455748788537
mp-972664,SmTh,"[Element Sm, Element Th]",2,Sm1 Th1,0.0,0.06925738249999801,9.610973695179181
mp-972742,SmBr,"[Element Br, Element Sm]",2,Sm1 Br1,0.0,-1.40973337,7.111567968132256
mp-973796,PmHo,"[Element Ho, Element Pm]",2,Pm1 Ho1,0.0,0.018551633749999002,7.591719182709787
mp-974421,IrRu,"[Element Ir, Element Ru]",2,Ir1 Ru1,0.0,-0.037187652500001,17.48876458292083
mp-976292,NaCu,"[Element Cu, Element Na]",2,Na1 Cu1,0.0,0.38996692172413805,4.157239761567835
mp-976828,MgPb3,"[Element Mg, Element Pb]",2,Mg1 Pb3,0.0,-0.001531236249999,9.286164730598522
mp-977206,NaTm,"[Element Na, Element Tm]",2,Na1 Tm1,0.0,0.299006213390804,5.021207744093829
mp-978679,SmI,"[Element I, Element Sm]",2,Sm1 I1,0.0,-1.076776040000002,7.448625048073565
mp-974435,Re3N,"[Element N, Element Re]",2,Re3 N1,0.0,-0.08897282156249901,19.28410520140223
mp-972692,SnPb,"[Element Pb, Element Sn]",2,Sn1 Pb1,0.0,0.143131734999997,9.313234188320731
mp-973534,FeRe,"[Element Fe, Element Re]",2,Fe1 Re1,0.0,0.09730682374999701,15.507619917147313
mp-973372,MgIn5,"[Element In, Element Mg]",2,Mg1 In5,0.0,0.010828671944447001,6.5181387242979145
mp-972845,SiMo,"[Element Mo, Element Si]",2,Si1 Mo1,0.0,-0.264590627142858,6.873706019722702
mp-978009,HgOs,"[Element Hg, Element Os]",2,Hg1 Os1,0.0,0.9914836774999991,18.73669619213958
mp-978251,CsMg149,"[Element Cs, Element Mg]",2,Cs1 Mg149,0.0,0.022718865547126002,1.791508651571122
mp-971875,UGa,"[Element Ga, Element U]",2,U1 Ga1,0.0,-0.1724258375,13.096966402256204
mp-972495,USn,"[Element Sn, Element U]",2,U1 Sn1,0.0,0.042649132500003004,12.894579843536388
mp-973229,ScNb,"[Element Nb, Element Sc]",2,Sc1 Nb1,0.0,0.18642095250000001,5.545294231919819
mp-976031,NaAc,"[Element Ac, Element Na]",2,Na1 Ac1,0.0,0.17605368047414002,4.876036209864473
mp-973948,LiHf,"[Element Hf, Element Li]",2,Li1 Hf1,0.0,0.321904268333334,7.430751542624777
mp-974062,KTm,"[Element K, Element Tm]",2,K1 Tm1,0.0,0.55062231516667,4.303985433556982
mp-982596,TbSc,"[Element Sc, Element Tb]",2,Tb1 Sc1,0.0,0.06901422750000201,5.920312206993949
mp-985290,BaCe,"[Element Ba, Element Ce]",2,Ba1 Ce1,0.0,0.42031207000000104,5.235438456276695
mp-984827,BaNd,"[Element Ba, Element Nd]",2,Ba1 Nd1,0.0,0.231290756249999,5.220363334637049
mp-979011,TmZr,"[Element Tm, Element Zr]",2,Tm1 Zr1,0.0,0.060829237499998,8.208073142980448
mp-981458,YbTa,"[Element Ta, Element Yb]",2,Yb1 Ta1,0.0,0.37458866883333203,13.228013947902836
mp-984762,CsY,"[Element Cs, Element Y]",2,Cs1 Y1,0.0,0.7168820927011481,3.8335303363139213
mp-991,WN,"[Element N, Element W]",2,W1 N1,0.0,-0.176156540208339,15.771021657713975
mp-978918,TbZr,"[Element Tb, Element Zr]",2,Tb1 Zr1,0.0,0.11904500500000001,7.642072986707725
mp-995205,VMo,"[Element Mo, Element V]",2,V1 Mo1,0.0,0.344099879999998,8.0551460741648
mp-982779,NbTe,"[Element Nb, Element Te]",2,Nb1 Te1,0.0,-0.346439548333333,8.346733405027786
mp-998899,YN,"[Element N, Element Y]",2,Y1 N1,0.007600000000000001,-1.528399029374998,5.686732689563026
mp-984695,PmY,"[Element Pm, Element Y]",2,Pm1 Y1,0.0,0.022426591249999003,5.561175014251737
mp-999549,WN2,"[Element N, Element W]",2,W1 N2,1.0654,-0.370267589166668,12.24244588473045
mp-979081,TmMg5,"[Element Mg, Element Tm]",2,Tm1 Mg5,0.0,0.027781530833332003,3.363430618743428
mp-983459,HfZr,"[Element Hf, Element Zr]",2,Hf1 Zr1,0.0,0.003599762499995,9.786929554876624
mp-997617,BOs,"[Element B, Element Os]",2,B1 Os1,0.0,-0.272355456249999,16.107045897635842
mp-998900,TcN,"[Element N, Element Tc]",2,Tc1 N1,0.0,0.155797881145833,9.299747666620757
mp-1079207,TiO2,"[Element O, Element Ti]",2,Ti3 O6,0.8879999999999991,-3.175238522222222,5.161167512722676
mp-1094240,MgSn5,"[Element Mg, Element Sn]",2,Mg1 Sn5,0.0,0.022042943333331,6.606335414928381
mp-1094392,Y5Mg,"[Element Mg, Element Y]",2,Y5 Mg1,0.0,0.075368344166665,4.169379378241111
mp-1080831,AsPd2,"[Element As, Element Pd]",2,As3 Pd6,0.0,-0.359356017499998,10.164059275196118
mp-1080778,K2Re,"[Element K, Element Re]",2,K6 Re3,0.0,1.9929151607777742,3.474894357018945
mp-1094319,Mg2Ti,"[Element Mg, Element Ti]",2,Mg4 Ti2,0.0,0.21648312055555502,2.56921643984958
mp-1038937,Ca2Mg,"[Element Ca, Element Mg]",2,Ca4 Mg2,0.0,0.015072055833333,1.6529548274291441
mp-1038949,CeMg5,"[Element Ce, Element Mg]",2,Ce1 Mg5,0.0,0.023886770833331003,2.78786420974778
mp-1021484,CeSe2,"[Element Ce, Element Se]",2,Ce3 Se6,0.0246,-1.8975449304513852,6.781509599759763
mp-1079254,Co2As,"[Element As, Element Co]",2,Co6 As3,0.0,-0.073868722361109,8.741423266064404
mp-1077026,YSi,"[Element Si, Element Y]",2,Y3 Si3,0.0,-0.11778432416666801,3.397358963418919
mp-1094189,Mg5Sn,"[Element Mg, Element Sn]",2,Mg5 Sn1,0.0,-0.015058189999999002,2.926437421950594
mp-1039084,Ce5Mg,"[Element Ce, Element Mg]",2,Ce5 Mg1,0.0,0.088971001944443,7.5509559216588595
mp-1078992,Th3Pt5,"[Element Pt, Element Th]",2,Th3 Pt5,0.0,-0.928786276874994,14.974626530707397
mp-1094156,LiMg2,"[Element Li, Element Mg]",2,Li2 Mg4,0.0,-0.019914033888888003,1.43954123914661
mp-1094462,MgZn5,"[Element Mg, Element Zn]",2,Mg1 Zn5,0.0,-0.018847739166667002,6.453731204259131
mp-1094540,Mg5Sb,"[Element Mg, Element Sb]",2,Mg5 Sb1,0.0,-0.048668684166666004,2.8643499397320413
mp-1094264,Sr2Mg,"[Element Mg, Element Sr]",2,Sr4 Mg2,0.0,0.082237158333332,2.572428605496984
mp-1094498,Mg5Ti,"[Element Mg, Element Ti]",2,Mg5 Ti1,0.0,0.190184325277777,2.145230238341649
mp-1024071,SiPt2,"[Element Pt, Element Si]",2,Si3 Pt6,0.0,-0.675788572777769,15.529630037788575
mp-1039549,CeMg2,"[Element Ce, Element Mg]",2,Ce2 Mg4,0.0,0.084606994444444,3.835540476529446
mp-1084834,K2Tc,"[Element K, Element Tc]",2,K6 Tc3,0.0,1.572279116333334,2.161651111762028
mp-1094292,Sr5Mg,"[Element Mg, Element Sr]",2,Sr5 Mg1,0.0,0.0446434325,2.637828849045561
mp-1094393,Y2Mg,"[Element Mg, Element Y]",2,Y4 Mg2,0.0,0.09585573833333301,3.764889796494924
mp-1094463,MgZn2,"[Element Mg, Element Zn]",2,Mg2 Zn4,0.0,-0.008829244999999,5.040142076515887
mp-1094473,Mg5Zn,"[Element Mg, Element Zn]",2,Mg5 Zn1,0.0,0.025217010833333,2.517915909078855
mp-1025404,Ce3Pd5,"[Element Ce, Element Pd]",2,Ce3 Pd5,0.0,-0.7935154375000011,9.181567064314395
mp-1038834,Mg2Bi,"[Element Bi, Element Mg]",2,Mg4 Bi2,0.0,0.0038478249999990004,5.438413056687723
mp-1039528,CaMg2,"[Element Ca, Element Mg]",2,Ca2 Mg4,0.0,0.002417114999999,1.704314542004584
mp-1094334,SrMg2,"[Element Mg, Element Sr]",2,Sr2 Mg4,0.0,0.064603613333332,2.313323094210984
mp-1094343,MgTi5,"[Element Mg, Element Ti]",2,Mg1 Ti5,0.0,0.107656794722222,4.085708904095267
mp-1094446,YMg2,"[Element Mg, Element Y]",2,Y2 Mg4,0.0,0.063424591666667,2.882466819103659
mp-1094253,Zr2Sn,"[Element Sn, Element Zr]",2,Zr4 Sn2,0.0,-0.38716866833333,7.3020757300921
mp-1094254,Zr5Sn,"[Element Sn, Element Zr]",2,Zr5 Sn1,0.0,-0.218210216666667,6.9109013519261495
mp-1094371,MgTi2,"[Element Mg, Element Ti]",2,Mg2 Ti4,0.0,0.23291403944444303,3.556481215252812
mp-1094517,Mg2Sn,"[Element Mg, Element Sn]",2,Mg4 Sn2,0.0,-0.045725736666666,3.847542872472559
mp-1049,SrAs,"[Element As, Element Sr]",2,Sr6 As6,0.0181,-1.268243582083336,4.3410850957987055
mp-1039273,CaMg5,"[Element Ca, Element Mg]",2,Ca1 Mg5,0.0,-0.011666050833333,1.754477517636203
mp-1094223,MgSn2,"[Element Mg, Element Sn]",2,Mg2 Sn4,0.0,-0.007224403333331001,5.791321110799096
mp-1039288,Ce2Mg,"[Element Ce, Element Mg]",2,Ce4 Mg2,0.0,0.091908985555553,6.222319707511363
mp-1094161,LaMg2,"[Element La, Element Mg]",2,La2 Mg4,0.0,0.027035368333332,3.628826936027049
mp-1094541,Mg2Sb,"[Element Mg, Element Sb]",2,Mg4 Sb2,0.0,-0.088686121666666,3.885636915780421
mp-1071163,TiO,"[Element O, Element Ti]",2,Ti3 O3,0.0,-2.907956279166666,5.136733950019456
mp-1094448,Mg2Zn,"[Element Mg, Element Zn]",2,Mg4 Zn2,0.0,0.015050798333333,3.18526819575902
mp-1094442,YMg5,"[Element Mg, Element Y]",2,Y1 Mg5,0.0,0.0189484725,2.383588487020825
mp-1094742,MgCd5,"[Element Cd, Element Mg]",2,Mg1 Cd5,0.0,0.008359679166668,7.5202843400108925
mp-1287,KS,"[Element K, Element S]",2,K6 S6,1.469,-1.099480114947915,1.932581590949447
mp-1181016,K2Re,"[Element K, Element Re]",2,K6 Re3,0.0,1.57863790522222,4.904947444077143
mp-1182200,Ce2O3,"[Element Ce, Element O]",2,Ce2 O3,0.0,-3.566715642999998,5.153683006680469
mp-1094558,LiMg5,"[Element Li, Element Mg]",2,Li1 Mg5,0.0,-0.015064968611111002,1.622006240917178
mp-1094747,Mg2Cd,"[Element Cd, Element Mg]",2,Mg4 Cd2,0.0,-0.018244866666665003,4.165565804952842
mp-1185091,La5Mg,"[Element La, Element Mg]",2,La5 Mg1,0.0,0.015926851666667,5.720597933464741
mp-1094983,Mg5Bi,"[Element Bi, Element Mg]",2,Mg5 Bi1,0.0,0.0050497924999990005,3.70252954714599
mp-1094606,Mg5Ga,"[Element Ga, Element Mg]",2,Mg5 Ga1,0.0,-0.0056055437499990006,2.499142157043833
mp-1102993,EuAs,"[Element As, Element Eu]",2,Eu6 As6,0.0,-1.142826987083334,6.605030741612964
mp-1094629,MgGa2,"[Element Ga, Element Mg]",2,Mg2 Ga4,0.0,-0.06841527833333401,4.897027142117159
mp-1185816,Mg5Pd,"[Element Mg, Element Pd]",2,Mg5 Pd1,0.0,-0.21639478249999902,3.277430600918107
mp-1185833,MgAg5,"[Element Ag, Element Mg]",2,Mg1 Ag5,0.0,-0.092238795555555,8.94791054369006
mp-1345,CaP,"[Element Ca, Element P]",2,Ca6 P6,0.34430000000000005,-1.2564584531547611,2.438949924979277
mp-1185855,MgBi5,"[Element Bi, Element Mg]",2,Mg1 Bi5,0.0,0.08417633416666401,9.755801436641836
mp-1185818,Mg5Pb,"[Element Mg, Element Pb]",2,Mg5 Pb1,0.0,0.019724755833332,3.891692731791942
mp-1094656,Mg2Ga,"[Element Ga, Element Mg]",2,Mg4 Ga2,0.0,-0.04546588249999901,3.157167182216663
mp-1185948,MgPt2,"[Element Mg, Element Pt]",2,Mg2 Pt4,0.0,-0.573020828333336,14.866618634164777
mp-1119338,Na2O,"[Element Na, Element O]",2,Na6 O3,1.621199999999999,-1.352303978141761,2.725818592375247
mp-1184358,Eu5Mg,"[Element Eu, Element Mg]",2,Eu5 Mg1,0.0,0.042354009999995,5.604153136951937
mp-1185801,Mg5Ag,"[Element Ag, Element Mg]",2,Mg5 Ag1,0.0,-0.04621667611111,3.09197794151389
mp-1185887,MgHg5,"[Element Hg, Element Mg]",2,Mg1 Hg5,0.0,-0.016071954583338002,11.69242356440027
mp-1185952,MgPt5,"[Element Mg, Element Pt]",2,Mg1 Pt5,0.0,-0.311884330833332,17.556014547635634
mp-1184282,EuMg5,"[Element Eu, Element Mg]",2,Eu1 Mg5,0.0,-0.006759348333333,2.841777014498229
mp-1545896,Li2Sb,"[Element Li, Element Sb]",2,Li12 Sb6,0.0,-0.677205187777777,3.852455982515595
mp-1094576,Li2Mg,"[Element Li, Element Mg]",2,Li4 Mg2,0.0,-0.024188032777778003,1.031121004471661
mp-1094651,MgGa5,"[Element Ga, Element Mg]",2,Mg1 Ga5,0.0,-0.039031807083333,5.659318629965869
mp-1200130,Rb5Tl9,"[Element Rb, Element Tl]",2,Rb15 Tl27,0.0,-0.11273042482143501,6.707477989100692
mp-1185814,Mg5Hg,"[Element Hg, Element Mg]",2,Mg5 Hg1,0.0,-0.04722703625000001,4.193874742500026
mp-11584,Lu8Te,"[Element Lu, Element Te]",2,Lu8 Te1,0.0,-0.32663798666666505,9.86348740944414
mp-1101926,EuAs,"[Element As, Element Eu]",2,Eu6 As6,0.0,-1.143880177916669,6.568276039019196
mp-1185863,MgGe5,"[Element Ge, Element Mg]",2,Mg1 Ge5,0.0,0.177523326249999,5.520817510484257
mp-1207128,Th3Pt5,"[Element Pt, Element Th]",2,Th3 Pt5,0.0,-1.336981197499994,15.741048521171832
mp-1279,TaN,"[Element N, Element Ta]",2,Ta3 N3,0.0,-1.3587061480416671,14.182330026150181
mp-1185803,Mg5Cu,"[Element Cu, Element Mg]",2,Mg5 Cu1,0.0,0.028712746249999,2.5751696010862233
mp-1185922,MgIn5,"[Element In, Element Mg]",2,Mg1 In5,0.0,0.042418116944446006,6.451101859475367
mp-1187963,Yb5Mg,"[Element Mg, Element Yb]",2,Yb5 Mg1,0.0,0.013360776666668002,8.493478742473481
mp-13446,Co2P,"[Element Co, Element P]",2,Co6 P3,0.0,-0.38518074488095305,7.824430474983884
mp-1094702,Ca5Mg,"[Element Ca, Element Mg]",2,Ca5 Mg1,0.0,0.022527109166667003,1.5894390332138961
mp-1185629,MgIn2,"[Element In, Element Mg]",2,Mg2 In4,0.0,-0.016917982777774003,5.743777807740823
mp-1185817,Mg5In,"[Element In, Element Mg]",2,Mg5 In1,0.0,-0.004221291944444001,2.9149404778393873
mp-1185819,Mg5Sc,"[Element Mg, Element Sc]",2,Mg5 Sc1,0.0,0.04115681,2.013678551394149
mp-1185852,MgAu5,"[Element Au, Element Mg]",2,Mg1 Au5,0.0,-0.255084704166662,16.013479157810362
mp-21167,Ni2P,"[Element Ni, Element P]",2,Ni6 P3,0.0,-0.47382519154761904,7.553723583612449
mp-308,U3O8,"[Element O, Element U]",2,U3 O8,0.0,-3.706795401818183,8.465552295994232
mp-1849,Mn2P,"[Element Mn, Element P]",2,Mn6 P3,0.0,-0.513148089057198,6.7747396077434665
mp-20061,GePt2,"[Element Ge, Element Pt]",2,Ge3 Pt6,0.0,-0.37108115888888604,16.530491959234748
mp-2340,Na2O2,"[Element Na, Element O]",2,Na6 O6,1.7361,-1.2980963948563211,2.6929727082185853
mp-20026,Pu2Co,"[Element Co, Element Pu]",2,Pu6 Co3,0.0,0.094513803819432,14.91800174447549
mp-30839,Th3Pd5,"[Element Pd, Element Th]",2,Th3 Pd5,0.0,-0.5794595549375,11.453230386642744
mp-1554,KTe,"[Element K, Element Te]",2,K6 Te6,0.21319999999999903,-1.010032901041668,3.201297784181708
mp-18206,Co2As,"[Element As, Element Co]",2,Co24 As12,0.0,-0.085569199027774,8.748235135935715
mp-553347,La2O3,"[Element La, Element O]",2,La2 O3,1.5342,-3.633731549000001,4.820695086702337
mp-30218,Ti2P,"[Element P, Element Ti]",2,Ti6 P3,0.0,-1.128354833769839,4.7647838337957324
mp-22064,Cr2As,"[Element As, Element Cr]",2,Cr6 As3,0.0,-0.011914694722221002,6.876388791768677
mp-409,NaS,"[Element Na, Element S]",2,Na6 S6,0.8685,-1.001984056406249,2.068232806991422
mp-349,Yb3Si5,"[Element Si, Element Yb]",2,Yb3 Si5,0.0,-0.6674931537500011,7.409554196579891
mp-423,GePd2,"[Element Ge, Element Pd]",2,Ge3 Pd6,0.0,-0.5388015261111101,10.47956389368497
mp-567244,Mg2Tl,"[Element Mg, Element Tl]",2,Mg6 Tl3,0.0,-0.000503246666668,6.064721569483948
mp-567680,BaCl2,"[Element Ba, Element Cl]",2,Ba3 Cl6,4.5724,-2.958708906666667,3.85852942809062
mp-31326,Mg2In,"[Element In, Element Mg]",2,Mg6 In3,0.0,-0.050700419999999004,4.020033796381418
mp-33056,Rb6C5,"[Element C, Element Rb]",2,Rb6 C5,0.0,2.104220413636363,2.254861012703713
mp-568536,BaI2,"[Element Ba, Element I]",2,Ba3 I6,3.0488,-2.047464630555553,5.016370997626422
mp-2849,US2,"[Element S, Element U]",2,U3 S6,0.0,-1.78433029131945,8.066280446438064
mp-9063,RbSe,"[Element Rb, Element Se]",2,Rb6 Se6,0.9245000000000001,-1.164229320755207,3.461688852513694
mp-8591,USe2,"[Element Se, Element U]",2,U3 Se6,0.0,-1.363448516562497,9.227066848579758
mp-578,GaAg2,"[Element Ag, Element Ga]",2,Ga3 Ag6,0.0,-0.020324264444443,9.428990981168958
mp-9268,KSe,"[Element K, Element Se]",2,K6 Se6,0.7039000000000001,-1.167954419796875,2.80892329970684
mp-571598,Ga2Au7,"[Element Au, Element Ga]",2,Ga6 Au21,0.0,-0.08493474962962701,16.314077393764432
mp-778,Fe2P,"[Element Fe, Element P]",2,Fe6 P3,0.0,-0.45708832265872906,7.232748485319211
mp-864996,AcMg5,"[Element Ac, Element Mg]",2,Ac1 Mg5,0.0,-0.034252294583332,3.533703416880433
mp-767,Yb3Ge5,"[Element Ge, Element Yb]",2,Yb3 Ge5,0.0,-0.686023140625003,9.01091105165184
mp-569278,SiPd2,"[Element Pd, Element Si]",2,Si3 Pd6,0.0,-0.205780449444445,8.132008820539582
mp-888,CaAs,"[Element As, Element Ca]",2,Ca6 As6,0.0,-1.274510102916667,3.59173249091413
mp-998917,K2O2,"[Element K, Element O]",2,K6 O6,2.083399999999999,-1.259173639874999,2.549147948629754
mp-568683,La16Al13,"[Element Al, Element La]",2,La16 Al13,0.0,-0.421708557586208,5.227446016144564
mp-977059,MgPd5,"[Element Mg, Element Pd]",2,Mg1 Pd5,0.0,-0.32924147416666605,10.150900745317342
mp-972954,MgCd2,"[Element Cd, Element Mg]",2,Mg2 Cd4,0.0,-0.010465953333332001,6.510422566075708
mp-9062,RbS,"[Element Rb, Element S]",2,Rb6 S6,1.5781,-1.15946500333333,2.796485592496512
mp-7931,SrP,"[Element P, Element Sr]",2,Sr6 P6,0.45940000000000003,-1.210426868988094,3.451242732968408
mp-865604,Li5Mg,"[Element Li, Element Mg]",2,Li5 Mg1,0.0,-0.014123781388889001,0.804964718671024
mp-976128,Hf5Sc,"[Element Hf, Element Sc]",2,Hf5 Sc1,0.0,-0.002125777500002,11.565771533454486
mp-697068,SiPd2,"[Element Pd, Element Si]",2,Si3 Pd6,0.0,-0.679503392777778,9.422749367303965
mp-9064,RbTe,"[Element Rb, Element Te]",2,Rb6 Te6,0.4374,-1.048316926249999,3.6511073551613693
mp-1106142,BrN4,"[Element Br, Element N]",2,Br4 N16,0.260399999999999,0.777365737499999,2.8133788689224892
mp-1180220,NO,"[Element N, Element O]",2,N4 O4,0.0,0.030297754999999003,1.608849059062051
mp-1102941,PN2,"[Element N, Element P]",2,P4 N8,0.0,0.001687952757935,2.270978820017313
mp-1096864,C3N,"[Element C, Element N]",2,C12 N4,0.0,0.931345706249999,1.986891747078118
mp-1179728,RbF3,"[Element F, Element Rb]",2,Rb4 F12,2.173,-1.811201056874999,3.307277327647285
mp-1190685,CO2,"[Element C, Element O]",2,C8 O16,6.7524000000000015,-1.258222730833334,3.018186623214764
mp-1181185,IO3,"[Element I, Element O]",2,I4 O12,0.0,-0.49631770000000003,5.381759486184993
mp-1188662,NaAs,"[Element As, Element Na]",2,Na8 As8,0.5472,-0.515268271874999,3.391821631745595
mp-1182269,BeO2,"[Element Be, Element O]",2,Be4 O8,3.237,-1.580769935833332,2.413102848150735
mp-10802,RbAs,"[Element As, Element Rb]",2,Rb8 As8,0.5879000000000001,-0.41755719312500006,3.797080157274115
mp-1181222,GeH4,"[Element Ge, Element H]",2,Ge4 H16,5.9261,-0.035604320499999,1.522142711760449
mp-1014333,C3N,"[Element C, Element N]",2,C12 N4,0.0,0.660527049999998,1.763340459241955
mp-1095694,Ag2S,"[Element Ag, Element S]",2,Ag8 S4,0.0,-0.09316894343749901,7.508354932920647
mp-1188944,N4Cl,"[Element Cl, Element N]",2,N16 Cl4,0.23119999999999902,0.8933440855000001,2.046549306323001
mp-1193140,Cs2S5,"[Element Cs, Element S]",2,Cs8 S20,1.8661999999999992,-0.743681253794641,3.046112503708791
mp-1016092,Re2O7,"[Element O, Element Re]",2,Re16 O56,2.7295,-2.025868364583333,5.837607744971917
mp-1180282,NO,"[Element N, Element O]",2,N4 O4,0.0,0.038732275000000004,1.5491220859558
mp-1073455,MgSi2,"[Element Mg, Element Si]",2,Mg8 Si16,0.0,0.18163456666666603,2.547149286444249
mp-1180438,NO6,"[Element N, Element O]",2,N4 O24,0.0,0.046635792499999,1.644344980366899
mp-1183005,Ag2Se,"[Element Ag, Element Se]",2,Ag8 Se4,1.7115,-0.081074481354169,5.385771457098787