material_id,formula_pretty,elements,nelements,composition,band_gap,formation_energy_per_atom,density
mp-1196782,ZnS,"[Element S, Element Zn]",2,Zn18 S18,1.986399999999999,-0.9507823234300601,3.979843096537789
mp-1202959,ZnS,"[Element S, Element Zn]",2,Zn18 S18,1.992499999999999,-0.9504713439856151,3.9639726273520193
mp-1201158,ZnS,"[Element S, Element Zn]",2,Zn18 S18,2.0046,-0.9501534175967261,3.964783449262998
mp-1200568,ZnS,"[Element S, Element Zn]",2,Zn18 S18,1.9998999999999991,-0.950064182041171,3.959884875138361
mp-1200692,SiC,"[Element C, Element Si]",2,Si17 C17,1.969299999999998,-0.305924593970587,3.22767635058752
mp-1181998,BrO,"[Element Br, Element O]",2,Br1 O1,0.0,0.576516114999999,4.076111168747045
mp-1197730,SiC,"[Element C, Element Si]",2,Si17 C17,2.0037,-0.305771080147058,3.227780150771845
mp-1202023,ZnS,"[Element S, Element Zn]",2,Zn18 S18,2.0011,-0.9504548223189491,3.978314512404247
mp-1200848,SiC,"[Element C, Element Si]",2,Si25 C25,1.9337,-0.27390696836842104,3.170062857636804
mp-1216474,V4C3,"[Element C, Element V]",2,V4 C3,0.0,-0.49510261880952305,5.7300039254179485
mp-1216163,Y4Mg25,"[Element Mg, Element Y]",2,Y4 Mg25,0.0,-0.008443104999999,2.25600102299313
mp-1172873,GeTe,"[Element Ge, Element Te]",2,Ge1 Te1,0.6986999999999991,0.09019097499999801,5.015197584679304
mp-1198139,ZnS,"[Element S, Element Zn]",2,Zn18 S18,1.9919,-0.950471567874504,3.96403091117073
mp-1200836,ZnS,"[Element S, Element Zn]",2,Zn18 S18,1.9881000000000002,-0.950469314818949,3.963820267619967
mp-1180507,LiB11,"[Element B, Element Li]",2,Li1 B11,0.0,0.113220592291665,2.389959714762332
mp-1204356,SiC,"[Element C, Element Si]",2,Si19 C19,1.8389000000000002,-0.30594644486842204,3.227670169340689
mp-1199063,SiC,"[Element C, Element Si]",2,Si28 C28,1.6849,-0.27408188293984903,3.171246546298422
mp-1200168,SiC,"[Element C, Element Si]",2,Si29 C29,1.941199999999998,-0.274237369885662,3.172753901152588
mp-1188728,CdI2,"[Element Cd, Element I]",2,Cd6 I12,2.3874,-0.8267767706666641,5.239002796636608
mp-1192989,Cu7Hg6,"[Element Cu, Element Hg]",2,Cu14 Hg12,0.0,0.14360495576923202,12.626264673565446
mp-1194040,Mn5Al8,"[Element Al, Element Mn]",2,Mn10 Al16,0.0,-0.197021284204243,4.621686544786831
mp-1201781,ZnS,"[Element S, Element Zn]",2,Zn18 S18,1.9874,-0.9507828350967261,3.979675995253303
mp-1202182,ZnS,"[Element S, Element Zn]",2,Zn18 S18,1.992999999999999,-0.9504746987078371,3.964315085688287
mp-1216778,TiS2,"[Element S, Element Ti]",2,Ti4 S8,0.7773000000000001,-1.439357274444443,2.846945541057199
mp-1217681,Tb2Pr,"[Element Pr, Element Tb]",2,Tb2 Pr1,0.0,0.027583219444442003,7.540833120419054
mp-1222752,LaY,"[Element La, Element Y]",2,La3 Y3,0.0,0.05972953083332701,5.374831528868726
mp-1216583,TlP3,"[Element P, Element Tl]",2,Tl1 P3,0.0,0.27001063218451904,5.165751351592242
mp-1220109,Ni3S2,"[Element Ni, Element S]",2,Ni3 S2,0.0,-0.39339454299999904,5.787449618175745
mp-1224391,Hf4N3,"[Element Hf, Element N]",2,Hf4 N3,0.0,-1.7253764866071442,13.651912424288552
mp-1222780,LaY,"[Element La, Element Y]",2,La3 Y3,0.0,0.007874764166662001,5.290869564649805
mp-1217883,Ta13Al23,"[Element Al, Element Ta]",2,Ta39 Al69,0.0,-0.30056153871852404,8.348807046257807
mp-1220969,NaSi68,"[Element Na, Element Si]",2,Na1 Si68,0.043099999999999,0.120131761553596,2.009883391345561
mp-1225318,Mn3In,"[Element In, Element Mn]",2,Mn39 In13,0.0,0.221060860397878,7.652208915056496
mp-1225560,Er2O3,"[Element Er, Element O]",2,Er2 O3,2.8826,-3.920779504999999,8.45070876036555
mp-1217172,Ti5S8,"[Element S, Element Ti]",2,Ti5 S8,0.0,-1.584540012051281,3.414817625265709
mp-1224383,Hf3N2,"[Element Hf, Element N]",2,Hf3 N2,0.0,-1.5890352555000051,13.345825383411414
mp-1219744,PrY,"[Element Pr, Element Y]",2,Pr3 Y3,0.0,0.017228925833331,5.432276611251614
mp-1221203,Na3Tl4,"[Element Na, Element Tl]",2,Na3 Tl4,0.0,-0.121669004642853,6.763257148855579
mp-1219457,SbAs,"[Element As, Element Sb]",2,Sb1 As1,0.0,-0.001235446249999,6.139378301118916
mp-1219373,Sc3Te4,"[Element Sc, Element Te]",2,Sc3 Te4,0.0,-1.419595367380952,5.108221623029875
mp-1222489,Li3Ga14,"[Element Ga, Element Li]",2,Li3 Ga14,0.0,-0.181210765294117,4.937236727278082
mp-1218000,Ta4C3,"[Element C, Element Ta]",2,Ta4 C3,0.0,-0.634357947047618,14.622677559957294
mp-1220501,Nb4C3,"[Element C, Element Nb]",2,Nb4 C3,0.0,-0.5113106900000041,7.6274177311197615
mp-1218916,SnSb,"[Element Sb, Element Sn]",2,Sn1 Sb1,0.0,0.11727179000000001,5.269444180630255
mp-1222239,Pr31Ni64,"[Element Ni, Element Pr]",2,Pr31 Ni64,0.0,-0.280242777175437,8.508208330625365
mp-1224319,GeAs3,"[Element As, Element Ge]",2,Ge1 As3,0.0,0.047771355312502005,5.482334507297581
mp-1220129,NdDy,"[Element Dy, Element Nd]",2,Nd3 Dy3,0.0,0.044588424583328005,7.545584843367071
mp-1225654,CuCl,"[Element Cl, Element Cu]",2,Cu1 Cl1,0.5569000000000001,-0.498003276249999,4.207638995500521
mp-1227290,BiSb,"[Element Bi, Element Sb]",2,Bi1 Sb1,0.1101,-0.0069253724999990005,8.0468630402421
mp-1226250,CrMo3,"[Element Cr, Element Mo]",2,Cr1 Mo3,0.0,0.447414012499997,9.226047679982164
mp-1412582,VO2,"[Element O, Element V]",2,V4 O8,0.070399999999999,-2.265321950000002,3.806406203397823
mp-1225769,Cu5Ge2,"[Element Cu, Element Ge]",2,Cu5 Ge2,0.0,0.073870745476191,7.967764974323726
mp-1227357,Be3Cu,"[Element Be, Element Cu]",2,Be9 Cu3,0.0,-0.104867697916667,4.347367530608563
mp-1227319,Bi3Sb,"[Element Bi, Element Sb]",2,Bi3 Sb1,0.0,0.003182081249995,8.79043042904125
mp-1226960,CeEr,"[Element Ce, Element Er]",2,Ce3 Er3,0.0,0.061628662499998,8.406268353087924
mp-1227077,Cd43Pd8,"[Element Cd, Element Pd]",2,Cd43 Pd8,0.0,-0.130107514117644,9.29958290565506
mp-1547,NiS,"[Element Ni, Element S]",2,Ni3 S3,0.0,-0.6106647137499981,5.54550911388632
mp-1228795,AsP,"[Element As, Element P]",2,As1 P1,0.0,0.08308660583333301,4.494692209277933
mp-1407587,MnO2,"[Element Mn, Element O]",2,Mn4 O8,0.0,-1.595954940143678,3.960984370261941
mp-1434,MoS2,"[Element Mo, Element S]",2,Mo1 S2,1.2042,-0.9661425452083321,4.669644630696905
mp-15651,NiSe,"[Element Ni, Element Se]",2,Ni3 Se3,0.0,-0.32913280119791705,7.241909815561372
mp-1228630,B13P,"[Element B, Element P]",2,B13 P1,0.0,-0.044263610153061,2.45112555670806
mp-13456,ZnS,"[Element S, Element Zn]",2,Zn5 S5,2.0416,-0.961893837906249,4.139158092904608
mp-1408285,TiO2,"[Element O, Element Ti]",2,Ti4 O8,2.4461,-3.320584981944444,3.5487996910676562
mp-13150,BN,"[Element B, Element N]",2,B1 N1,4.3887,-1.412926190625,2.253268039495839
mp-1228640,B12S,"[Element B, Element S]",2,B12 S1,1.7964,-0.018664745961537003,2.41220629118299
mp-1443203,FeO2,"[Element Fe, Element O]",2,Fe4 O8,0.0,-1.113444416666666,4.05244054529336
mp-1227576,Cu81Sn22,"[Element Cu, Element Sn]",2,Cu81 Sn22,0.0,0.026199568834949002,8.767561136446718
mp-1388847,CrO2,"[Element Cr, Element O]",2,Cr4 O8,0.5338,-1.857045538333333,3.9610473227034033
mp-13870,TaSe2,"[Element Se, Element Ta]",2,Ta2 Se4,0.0,-0.91946990515278,8.051650226790072
mp-1407373,NiO2,"[Element Ni, Element O]",2,Ni4 O8,0.0,-0.488271950833333,4.584177977345454
mp-554405,ZnS,"[Element S, Element Zn]",2,Zn5 S5,2.0715,-0.9607977189062511,4.136702043613275
mp-19954,Al8Cr5,"[Element Al, Element Cr]",2,Al16 Cr10,0.0,-0.04790163607692301,4.232632902033681
mp-22691,InSe,"[Element In, Element Se]",2,In2 Se2,0.6375000000000001,-0.6763020120312461,5.271391956344628
mp-32899,Li2S,"[Element Li, Element S]",2,Li22 S11,1.875399999999999,-1.42832419411616,1.651171226497652
mp-32750,CuI,"[Element Cu, Element I]",2,Cu4 I4,1.1643,-0.335948152083331,5.808559373306874
mp-16226,TaS2,"[Element S, Element Ta]",2,Ta2 S4,0.0,-1.378637210777774,6.678114917636149
mp-18377,ZnS,"[Element S, Element Zn]",2,Zn10 S10,2.0462,-0.9104130257633921,3.9871640520945393
mp-23162,ZrCl2,"[Element Cl, Element Zr]",2,Zr1 Cl2,1.0479,-1.87860569,4.0270939931277
mp-19907,In2Se3,"[Element In, Element Se]",2,In2 Se3,0.0,-0.369254164104168,5.318409108605309
mp-27945,BiO,"[Element Bi, Element O]",2,Bi1 O1,0.0,-0.8826218975000001,8.635898557196244
mp-556468,ZnS,"[Element S, Element Zn]",2,Zn8 S8,2.032899999999999,-0.951108138638392,3.999658655900763
mp-33046,TiN,"[Element N, Element Ti]",2,Ti22 N22,0.0,-1.868185526571967,4.702693308328239
mp-555280,ZnS,"[Element S, Element Zn]",2,Zn6 S6,2.0347,-0.962023470572916,4.139861614235314
mp-556105,ZnS,"[Element S, Element Zn]",2,Zn10 S10,2.010799999999999,-0.9112306617633921,3.993439627200566
mp-543011,ZnS,"[Element S, Element Zn]",2,Zn7 S7,2.0396,-0.9500676567633921,3.984701257907226
mp-555763,ZnS,"[Element S, Element Zn]",2,Zn3 S3,2.0639,-0.9611227455729161,4.138627446645342
mp-555858,ZnS,"[Element S, Element Zn]",2,Zn10 S10,2.0194,-0.9114680992633931,3.976378579589337
mp-35216,BiTe3,"[Element Bi, Element Te]",2,Bi1 Te3,0.0,-0.133736236250001,7.343800894020271
mp-27658,Li5B4,"[Element B, Element Li]",2,Li5 B4,0.0,0.45341650999999905,1.191601219536946
mp-555410,ZnS,"[Element S, Element Zn]",2,Zn4 S4,2.064,-0.961571241406249,4.138445523331442
mp-556576,ZnS,"[Element S, Element Zn]",2,Zn8 S8,2.0892,-0.9495130923883931,3.996597932340106
mp-624397,SiC,"[Element C, Element Si]",2,Si11 C11,2.003399999999999,-0.27418348982296703,3.171994172963911
mp-581602,ZnS,"[Element S, Element Zn]",2,Zn12 S12,2.0385,-0.9508279367633931,3.988478339783698
mp-559374,TiS3,"[Element S, Element Ti]",2,Ti1 S3,0.0,-0.799944488958332,1.892822097087302
mp-579102,Sm32O21,"[Element O, Element Sm]",2,Sm32 O21,0.0,-2.351892463301888,6.557581683731483
mp-756488,CoO2,"[Element Co, Element O]",2,Co4 O8,0.0,-0.952473294166666,4.648239633078222
mp-685189,Cu29Se19,"[Element Cu, Element Se]",2,Cu29 Se19,0.0,-0.092854481347655,6.278494468051536
mp-581601,ZnS,"[Element S, Element Zn]",2,Zn12 S12,2.0265,-0.95136552718006,3.988365313750514
mp-570572,C3N4,"[Element C, Element N]",2,C3 N4,1.412999999999999,0.147267648214285,2.160675758678166
mp-574663,CdI2,"[Element Cd, Element I]",2,Cd4 I8,2.4557,-0.7894472666666661,4.780777297859569
mp-684606,Cu27Se20,"[Element Cu, Element Se]",2,Cu27 Se20,0.0,-0.133801923111701,6.01362561957591
mp-755483,Al2O3,"[Element Al, Element O]",2,Al2 O3,4.0029,-3.323472524000001,3.7626576031054073
mp-684964,Cu11S20,"[Element Cu, Element S]",2,Cu11 S20,0.0,0.083892421905243,3.407441988633388
mp-581476,ZnS,"[Element S, Element Zn]",2,Zn12 S12,2.0243,-0.95136465093006,3.986419767635655
mp-608468,ZnS,"[Element S, Element Zn]",2,Zn12 S12,1.9806,-0.9109926692633931,3.954792055272825
mp-570690,SiC,"[Element C, Element Si]",2,Si9 C9,1.6644,-0.297578883812865,3.169407551524623
mp-7581,MoSe2,"[Element Mo, Element Se]",2,Mo1 Se2,1.361999999999999,-0.749248649375,6.437097955568167
mp-570804,SiC,"[Element C, Element Si]",2,Si13 C13,1.843299999999999,-0.274250716291497,3.16851133259096
mp-581258,ZnS,"[Element S, Element Zn]",2,Zn12 S12,2.0381,-0.9508194417633931,3.988538904577278
mp-570641,SiC,"[Element C, Element Si]",2,Si8 C8,1.699799999999999,-0.29667742561842103,3.169270102740201
mp-557151,ZnS,"[Element S, Element Zn]",2,Zn8 S8,2.0574,-0.9511080561383931,3.9997060625119643
mp-581412,ZnS,"[Element S, Element Zn]",2,Zn12 S12,2.0264,-0.9513546975967261,3.989179889833755
mp-627401,CdI2,"[Element Cd, Element I]",2,Cd5 I10,2.3874,-0.817900225999999,5.081034473714386
mp-628808,Cu7Hg6,"[Element Cu, Element Hg]",2,Cu14 Hg12,0.0,0.346778829230769,7.6881050184848565
mp-685056,Cu9S16,"[Element Cu, Element S]",2,Cu9 S16,0.0,0.37695897645416804,3.427463855955725
mp-7834,TaSe2,"[Element Se, Element Ta]",2,Ta1 Se2,0.0,-0.9312903451527791,7.998797584293712
mp-938,GeTe,"[Element Ge, Element Te]",2,Ge1 Te1,0.5565,-0.035467995000001,5.947280906242025
mp-9947,SiC,"[Element C, Element Si]",2,Si7 C7,1.848799999999998,-0.305930113928572,3.227557774286588
mp-7597,NbSe2,"[Element Nb, Element Se]",2,Nb1 Se2,0.0,-0.9833342927083321,5.853377983308184
mp-966,NbS2,"[Element Nb, Element S]",2,Nb1 S2,0.0,-1.3467318399999981,4.171511929589814
mp-9813,WS2,"[Element S, Element W]",2,W1 S2,1.6021,-0.8826962018750011,7.222771201204966
mp-556660,CO,"[Element C, Element O]",2,C8 O8,5.8483,-0.6492438193750001,1.029965258758632
mp-31135,Si19Te8,"[Element Si, Element Te]",2,Si38 Te16,0.8927,0.015168027407408002,4.389663345152595
mp-1172859,P2O5,"[Element O, Element P]",2,P8 O20,0.22009999999999902,-0.6309704666836721,1.875918267806926
mp-651723,C5N4,"[Element C, Element N]",2,C10 N8,5.8888,0.565152831944445,1.383835057825388
mp-570738,GaI2,"[Element Ga, Element I]",2,Ga12 I24,2.4743999999999993,-0.727731253611111,4.357624036057486
mp-562613,P2O5,"[Element O, Element P]",2,P8 O20,5.540900000000001,-2.398106894540817,2.326727433858114
mp-650841,GaBr2,"[Element Br, Element Ga]",2,Ga12 Br24,3.3609,-1.131814039027779,3.850398474459942
mp-1975094,U3Sb4,"[Element Sb, Element U]",2,U6 Sb8,0.0,-0.628167404999999,10.116684568900984
mp-669525,Sb3Pd8,"[Element Pd, Element Sb]",2,Sb12 Pd32,0.0,-0.29297040159090904,10.207412645362792
mp-1080866,CeSe2,"[Element Ce, Element Se]",2,Ce12 Se24,0.8144,-1.414135475451388,2.538613616508703
mp-548170,U3O8,"[Element O, Element U]",2,U3 O8,0.0,-3.461322245454543,9.23449766499912
mp-1079438,Ta2N,"[Element N, Element Ta]",2,Ta6 N3,0.0,-1.027914502250003,15.605209191431054
mp-569005,MoCl4,"[Element Cl, Element Mo]",2,Mo6 Cl24,0.0,-1.008397813666666,2.916958566242565
mp-569391,ZrCl3,"[Element Cl, Element Zr]",2,Zr2 Cl6,0.0,-1.889995640625001,2.922013893605794
mp-27819,Ag3O,"[Element Ag, Element O]",2,Ag6 O2,0.0,-0.216563653749997,9.226616749406004
mp-1220831,Nb10Ge7,"[Element Ge, Element Nb]",2,Nb10 Ge7,0.0,-0.454577460882352,8.25138413201576
mp-1221436,MoCl6,"[Element Cl, Element Mo]",2,Mo1 Cl6,1.094199999999999,-0.8429822507142841,2.7407284113669883
mp-33090,V2N,"[Element N, Element V]",2,V6 N3,0.0,-1.082968217361111,6.16616830184534
mp-8780,Cr2N,"[Element Cr, Element N]",2,Cr6 N3,0.0,-0.254791289583333,6.870987067514143
mp-248,Fe2N,"[Element Fe, Element N]",2,Fe6 N3,0.0,-0.149362362777777,7.410072441950495
mp-567354,TiCl3,"[Element Cl, Element Ti]",2,Ti2 Cl6,0.0,-1.778813748541647,2.471772742922638
mp-1182868,AlO3,"[Element Al, Element O]",2,Al2 O6,0.0,-1.486638615,2.4325324437980003
mp-1080316,CeSe2,"[Element Ce, Element Se]",2,Ce6 Se12,0.0,-1.307131091006944,2.8723294970415223
mp-882,Ti6O,"[Element O, Element Ti]",2,Ti12 O2,0.0,-0.9049613478571411,4.716091494120648
mp-569157,BiI3,"[Element Bi, Element I]",2,Bi2 I6,2.4854,-0.76378100625,5.317102173695045
mp-1221517,MoCl4,"[Element Cl, Element Mo]",2,Mo3 Cl12,0.0,-0.919885207666665,3.363384223086893
mp-557194,SiO2,"[Element O, Element Si]",2,Si6 O12,0.0,-2.010822102222222,2.084059753845407
mp-567397,W2C,"[Element C, Element W]",2,W6 C3,0.0,-0.01907622,16.536492191758597
mp-569339,Cu10Sn3,"[Element Cu, Element Sn]",2,Cu20 Sn6,0.0,0.20365704769230702,8.297008415559796
mp-1215783,Zr10Sn7,"[Element Sn, Element Zr]",2,Zr10 Sn7,0.0,-0.643360810588232,7.423215107746382
mp-1079585,Nb2N,"[Element N, Element Nb]",2,Nb6 N3,0.0,-0.982903795138886,8.058129214284511
mp-27908,Fe12N5,"[Element Fe, Element N]",2,Fe24 N10,0.0,-0.158987435882352,7.438944412371496
mp-556963,SiO2,"[Element O, Element Si]",2,Si12 O24,5.4127,-3.123226568055556,2.255075583119296
mp-1189023,Cr2Se3,"[Element Cr, Element Se]",2,Cr8 Se12,0.0,-0.8091599864062471,5.530752450921623
mp-567330,TiCl3,"[Element Cl, Element Ti]",2,Ti4 Cl12,0.0,-1.779151604166648,2.521871748958713
mp-1311,Cr5S6,"[Element Cr, Element S]",2,Cr10 S12,0.0,-0.8685724436363611,4.282994203017067
mp-554098,Ti6O,"[Element O, Element Ti]",2,Ti12 O2,0.0,-0.9166954207142841,4.718230249800664
mp-2750,Cr2Te3,"[Element Cr, Element Te]",2,Cr8 Te12,0.0,-0.46550123049999703,6.279930491496003
mp-684640,MoCl3,"[Element Cl, Element Mo]",2,Mo8 Cl24,1.2031,-0.9934833193750001,3.021296510525533
mp-13685,Cr2S3,"[Element Cr, Element S]",2,Cr8 S12,0.0,-0.9927963924999981,3.753542270889839
mp-1094153,CeSe2,"[Element Ce, Element Se]",2,Ce12 Se24,0.1506,-1.237271712951388,2.617456070910998
mp-1208273,Ti2Se3,"[Element Se, Element Ti]",2,Ti8 Se12,0.0,-1.453851246239581,5.383419356773262
mp-556044,SiO2,"[Element O, Element Si]",2,Si12 O24,0.0,-1.815465304444444,1.7590087891581891
mp-755175,Al2O3,"[Element Al, Element O]",2,Al8 O12,5.4924,-3.344650779,3.796290496395147
mp-2591,Ti3O,"[Element O, Element Ti]",2,Ti12 O4,0.0,-1.569913962499999,4.890993432307026
mp-556464,SiO2,"[Element O, Element Si]",2,Si12 O24,4.035,-3.026892561388889,2.666282666738986
mp-760992,V3O7,"[Element O, Element V]",2,V18 O42,0.312,-2.228063590666666,2.75028193686942
mp-1080373,CeSe2,"[Element Ce, Element Se]",2,Ce12 Se24,0.7945,-1.408100082951388,3.111404487536739
mp-776655,Ti2O3,"[Element O, Element Ti]",2,Ti8 O12,0.0,-3.218824381833335,4.384148726776235
mp-1009581,CrSe2,"[Element Cr, Element Se]",2,Cr1 Se2,0.0,-0.7685572382291661,5.5993383726326105
mp-1008632,V2C,"[Element C, Element V]",2,V2 C1,0.0,-0.537394246666667,5.839294675200942
mp-1017552,Bi2O3,"[Element Bi, Element O]",2,Bi2 O3,1.1218,-1.556733108500004,10.15087632542345
mp-1008673,TmCd2,"[Element Cd, Element Tm]",2,Tm1 Cd2,0.0,0.16220904999999802,8.069738582222286
mp-1008600,ZrN2,"[Element N, Element Zr]",2,Zr1 N2,0.0,-0.24985981638888602,4.528320181269826
mp-1018125,Ti2Re,"[Element Re, Element Ti]",2,Ti2 Re1,0.0,-0.352248595277776,9.965146139869582
mp-1009113,HoHg2,"[Element Hg, Element Ho]",2,Ho1 Hg2,0.0,-0.14528580166666902,11.282883199780782
mp-1001117,Mn3N2,"[Element Mn, Element N]",2,Mn3 N2,0.0,-0.196312870814654,6.749238393276186
mp-1008626,VTe2,"[Element Te, Element V]",2,V1 Te2,0.0,-0.5893001077777781,6.31608048509934
mp-1008777,SmHg2,"[Element Hg, Element Sm]",2,Sm1 Hg2,0.0,-0.18582120166666002,10.440746109181811
mp-1017550,Be3N2,"[Element Be, Element N]",2,Be3 N2,4.27,-1.009266585000001,2.84853805427885
mp-1009080,HoCd2,"[Element Cd, Element Ho]",2,Ho1 Cd2,0.0,0.155885341666669,7.813196202984641
mp-1009654,CaGe2,"[Element Ca, Element Ge]",2,Ca1 Ge2,0.0,-0.53071239,4.456575156880052
mp-1018655,CN2,"[Element C, Element N]",2,C2 N4,2.716599999999999,0.5964921458333321,2.572334422782801
mp-1009651,CaHg2,"[Element Ca, Element Hg]",2,Ca1 Hg2,0.0,-0.23748369333333103,8.065133774496399
mp-1017579,In2Au3,"[Element Au, Element In]",2,In2 Au3,0.0,-0.22412988400000103,12.826555499841632
mp-1009641,CoTe2,"[Element Co, Element Te]",2,Co1 Te2,0.0,-0.16567397,7.581466858828933
mp-1014160,ZrN,"[Element N, Element Zr]",2,Zr2 N2,0.0,-1.926353714375004,7.10311774399867
mp-1018138,VI2,"[Element I, Element V]",2,V1 I2,1.037,-0.7411700000000001,4.84397024184427
mp-1018107,ZrTe2,"[Element Te, Element Zr]",2,Zr1 Te2,0.0,-1.0684746383333321,5.915734971462726
mp-1017565,In2Se3,"[Element In, Element Se]",2,In2 Se3,0.10449999999999901,-0.648304879437498,5.736014636401468
mp-1018150,NbTe2,"[Element Nb, Element Te]",2,Nb1 Te2,0.0,-0.7137593455555541,6.745109923583476
mp-1008625,W2C,"[Element C, Element W]",2,W2 C1,0.0,0.034536679999997,16.510447514246184
mp-1008754,TbHg2,"[Element Hg, Element Tb]",2,Tb1 Hg2,0.0,-0.16322183874999902,10.937872214927832
mp-1017564,Eu2O3,"[Element Eu, Element O]",2,Eu2 O3,0.0,-3.4451725570000002,8.077829720008786
mp-1014454,Cr3N2,"[Element Cr, Element N]",2,Cr3 N2,0.0,-0.283983616166662,6.205825222871531
mp-1008910,LuCd2,"[Element Cd, Element Lu]",2,Lu1 Cd2,0.0,0.090734654444446,8.22527999253662
mp-1038975,MgCd,"[Element Cd, Element Mg]",2,Mg2 Cd2,0.0,0.011384552500001002,5.075470686227626
mp-1028441,WS2,"[Element S, Element W]",2,W4 S8,1.6559,-0.8797867568750011,5.335413448196138
mp-1027692,MoSe2,"[Element Mo, Element Se]",2,Mo4 Se8,1.4014,-0.745975304375001,4.89725636146776
mp-1023942,Te2W,"[Element Te, Element W]",2,Te4 W2,1.042099999999999,-0.07276837999999901,5.369225832057376
mp-1039056,MgCd2,"[Element Cd, Element Mg]",2,Mg2 Cd4,0.0,0.043071513333334005,6.100352973426125
mp-1023938,Te2Mo,"[Element Mo, Element Te]",2,Te4 Mo2,1.049699999999999,-0.295934236666667,4.2813849646302
mp-10196,Ta2N,"[Element N, Element Ta]",2,Ta2 N1,0.0,-0.914662352249995,15.274225852144209
mp-1023925,WS2,"[Element S, Element W]",2,W2 S4,1.697,-0.876131626874998,3.964988283746779
mp-1028698,WSe2,"[Element Se, Element W]",2,W4 Se8,1.518899999999999,-0.599367424374998,6.538327871216798