material_id,formula_pretty,elements,nelements,composition,band_gap,formation_energy_per_atom,density
mp-1216464,V4N3,"[Element N, Element V]",2,V4 N3,0.0,-1.142902738035713,6.084215671759638
mp-1206428,Li3Mg5,"[Element Li, Element Mg]",2,Li3 Mg5,0.0,-0.028067601874999,1.4000097254317971
mp-1210958,Mn7Pd9,"[Element Mn, Element Pd]",2,Mn7 Pd9,0.0,-0.029569669094827004,10.304005707558472
mp-1217135,Ti4O3,"[Element O, Element Ti]",2,Ti4 O3,0.0,-2.435004672619048,5.313966025182834
mp-1217157,Ti3O4,"[Element O, Element Ti]",2,Ti3 O4,0.0,-3.16382181714286,4.9380997348892155
mp-1217329,ThZr2,"[Element Th, Element Zr]",2,Th1 Zr2,0.0,0.09132835666667401,8.767456753809572
mp-1218001,Ta2O5,"[Element O, Element Ta]",2,Ta2 O5,1.6696,-3.222879877095239,5.442440650614254
mp-1210627,Mn3Ga,"[Element Ga, Element Mn]",2,Mn3 Ga1,0.0,-0.08578829758620701,7.958322130908212
mp-1209233,Sc11Ga10,"[Element Ga, Element Sc]",2,Sc22 Ga20,0.0,-0.642171628809524,4.776136723678987
mp-1213526,Dy11Ge10,"[Element Dy, Element Ge]",2,Dy22 Ge20,0.0,-0.9567027266666651,8.410926382946142
mp-1222990,La4Mg,"[Element La, Element Mg]",2,La4 Mg1,0.0,-0.017565333000001,5.560238474124801
mp-1206936,LaPb2,"[Element La, Element Pb]",2,La1 Pb2,0.0,-0.30385033499999803,9.540903638272379
mp-1207004,HfPd2,"[Element Hf, Element Pd]",2,Hf1 Pd2,0.0,-0.835486933333333,12.907092209559043
mp-1215363,Zr4Pd,"[Element Pd, Element Zr]",2,Zr4 Pd1,0.0,-0.285047620000003,7.292877921485632
mp-1206675,PuC2,"[Element C, Element Pu]",2,Pu1 C2,0.0,-0.19133596458333102,10.82978517004411
mp-1216986,TiFe4,"[Element Fe, Element Ti]",2,Ti1 Fe4,0.0,0.125867913333333,7.493256495607756
mp-1217167,Ti3N4,"[Element N, Element Ti]",2,Ti3 N4,0.0,-1.514775281607141,4.553772120171544
mp-1218021,Ta4N3,"[Element N, Element Ta]",2,Ta4 N3,0.0,-1.083207836511901,15.19377723768807
mp-1220318,NbH,"[Element H, Element Nb]",2,Nb1 H1,0.0,-0.133576734374997,7.608535617205704
mp-12105,RbO2,"[Element O, Element Rb]",2,Rb1 O2,0.0,-0.9722602958333331,3.3787543416919252
mp-1207162,Rb4C,"[Element C, Element Rb]",2,Rb4 C1,0.0,1.010158500999999,2.098676073767583
mp-1217168,Ti4Pd,"[Element Pd, Element Ti]",2,Ti4 Pd1,0.0,-0.219050665333332,5.883724009287352
mp-1222266,Lu3S4,"[Element Lu, Element S]",2,Lu3 S4,0.0,-2.290574807321422,7.138360521496141
mp-12241,Ca11Sb10,"[Element Ca, Element Sb]",2,Ca22 Sb20,0.0,-1.03713046642857,4.422549215803364
mp-1228665,BPd5,"[Element B, Element Pd]",2,B1 Pd5,0.0,-0.08821138208333201,10.435381996644738
mp-1227047,CaYb3,"[Element Ca, Element Yb]",2,Ca1 Yb3,0.0,0.162811751249996,7.11754363154079
mp-13452,BePd2,"[Element Be, Element Pd]",2,Be1 Pd2,0.0,-0.5061120183333321,9.885862475818971
mp-12664,Be12Au,"[Element Au, Element Be]",2,Be12 Au1,0.0,0.074974904615384,4.410898505719321
mp-1225177,Fe2Si,"[Element Fe, Element Si]",2,Fe2 Si1,0.0,-0.23541424333333202,7.177320926154487
mp-1225717,Cu3N,"[Element Cu, Element N]",2,Cu3 N1,0.0,0.38914827374999905,7.632351340022151
mp-12666,Be12Pd,"[Element Be, Element Pd]",2,Be12 Pd1,0.0,-0.066090853846154,3.220988509507532
mp-12764,SmC2,"[Element C, Element Sm]",2,Sm1 C2,0.0,-0.32605572333333505,6.395176520208246
mp-12693,Mg2Rh,"[Element Mg, Element Rh]",2,Mg2 Rh1,0.0,-0.401837599999999,4.94773504978135
mp-1380,Zn3Ru,"[Element Ru, Element Zn]",2,Zn6 Ru2,0.0,-0.1515198325,9.142065344478814
mp-1232418,CaTb3,"[Element Ca, Element Tb]",2,Ca1 Tb3,0.0,0.122750095,6.425236518900472
mp-12765,GdC2,"[Element C, Element Gd]",2,Gd1 C2,0.0,-0.304990589999998,6.933452007265482
mp-1232239,PmS,"[Element Pm, Element S]",2,Pm2 S2,0.0,-2.07003656015625,3.554720997271953
mp-1257615,MgSi2,"[Element Mg, Element Si]",2,Mg4 Si8,0.0,0.256097629166666,2.583460363882484
mp-12605,ReSi2,"[Element Re, Element Si]",2,Re1 Si2,0.0,-0.14677597416666702,10.0194755667805
mp-13155,Hf2Ag,"[Element Ag, Element Hf]",2,Hf2 Ag1,0.0,-0.11359852500000502,12.656477086056126
mp-13164,Ti2Pd,"[Element Pd, Element Ti]",2,Ti2 Pd1,0.0,-0.45329318444444505,7.0126413290254614
mp-12665,Be12Ag,"[Element Ag, Element Be]",2,Be12 Ag1,0.0,0.110922151410256,3.104239747696782
mp-1396980,BiF4,"[Element Bi, Element F]",2,Bi2 F8,0.6554,-2.098028382999996,5.952987855183915
mp-1225226,Fe4Mo,"[Element Fe, Element Mo]",2,Fe4 Mo1,0.0,0.18032148,8.464787966710443
mp-12857,Mn3N2,"[Element Mn, Element N]",2,Mn3 N2,0.0,-0.29638316681465404,6.485063688169957
mp-12742,MgPd3,"[Element Mg, Element Pd]",2,Mg2 Pd6,0.0,-0.48861777374999005,9.352979500060933
mp-13497,Er2Mg,"[Element Er, Element Mg]",2,Er2 Mg1,0.0,-0.017718654999995,7.030503208053311
mp-1229101,Ag2Te,"[Element Ag, Element Te]",2,Ag2 Te1,0.0,-0.051721933333335,7.625642844780926
mp-1299,SiPt2,"[Element Pt, Element Si]",2,Si1 Pt2,0.0,-0.7792132649999951,14.954121923311776
mp-1226890,Ce4H11,"[Element Ce, Element H]",2,Ce4 H11,0.0,-0.666231567749999,5.709637741244639
mp-1228793,AsPd4,"[Element As, Element Pd]",2,As1 Pd4,0.0,-0.15588994149999502,10.562237728385528
mp-13498,Tb2Mg,"[Element Mg, Element Tb]",2,Tb2 Mg1,0.0,-0.028155589444445003,6.454994222527155
mp-12761,BeAu2,"[Element Au, Element Be]",2,Be1 Au2,0.0,-0.135768288333335,15.554127698982748
mp-1735,BaC2,"[Element Ba, Element C]",2,Ba1 C2,1.616,0.096188543333333,3.795557236735035
mp-1620,Si2W,"[Element Si, Element W]",2,Si2 W1,0.0,-0.299889533333332,9.885777523462718
mp-1441,CsO2,"[Element Cs, Element O]",2,Cs1 O2,0.0,-0.9756556932183911,3.961580674720943
mp-1590,Be12Cr,"[Element Be, Element Cr]",2,Be12 Cr1,0.0,-0.050614865384615,2.462374064031555
mp-1416,NbF4,"[Element F, Element Nb]",2,Nb1 F4,0.0,-3.017305205399998,3.720526524569952
mp-14015,HoMn12,"[Element Ho, Element Mn]",2,Ho1 Mn12,0.0,-0.062913779907161,6.697625121189552
mp-1879,SmS,"[Element S, Element Sm]",2,Sm2 S2,0.0,-2.04244372125,3.704328868372448
mp-1827,SrGa4,"[Element Ga, Element Sr]",2,Sr1 Ga4,0.0,-0.47237165200000103,5.79110331540883
mp-171,VNi3,"[Element Ni, Element V]",2,V1 Ni3,0.0,-0.21591902750000003,8.685477305209414
mp-1891,SmAl4,"[Element Al, Element Sm]",2,Sm1 Al4,0.0,-0.325794486999998,4.1921676938766215
mp-1903,BaAl4,"[Element Al, Element Ba]",2,Ba1 Al4,0.0,-0.24118154000000003,3.444669667803434
mp-1579,ErC2,"[Element C, Element Er]",2,Er1 C2,0.0,-0.193925693333332,7.859876225304301
mp-1866,KO2,"[Element K, Element O]",2,K1 O2,0.0,-0.980193509083333,2.39878116699765
mp-19275,CoO,"[Element Co, Element O]",2,Co4 O4,0.0,-1.140194398750001,6.244491165818308
mp-1423,HoC2,"[Element C, Element Ho]",2,Ho1 C2,0.0,-0.18716979833333103,7.635540512394045
mp-16521,Al3Os2,"[Element Al, Element Os]",2,Al3 Os2,0.0,-0.595852814000002,11.214743816122077
mp-1475,Be12Mo,"[Element Be, Element Mo]",2,Be12 Mo1,0.0,-0.12780441923076802,3.097088646671659
mp-15624,Sr2Sb,"[Element Sb, Element Sr]",2,Sr4 Sb2,0.0,-0.918589409999997,4.329145522822213
mp-15697,Sr2As,"[Element As, Element Sr]",2,Sr4 As2,0.0,-1.030465083796296,4.145595832768615
mp-16475,Sr11Sb10,"[Element Sb, Element Sr]",2,Sr22 Sb20,0.0,-1.066274681904761,4.962584314331517
mp-1699,AlCr2,"[Element Al, Element Cr]",2,Al1 Cr2,0.0,0.035209829999999005,5.870884090603154
mp-1834,NdAl4,"[Element Al, Element Nd]",2,Nd1 Al4,0.0,-0.33503090149999903,4.090790333067072
mp-1842,NbAl3,"[Element Al, Element Nb]",2,Nb1 Al3,0.0,-0.49387702249999904,4.575352086627719
mp-1749,CaAl4,"[Element Al, Element Ca]",2,Ca1 Al4,0.0,-0.220582133999999,2.346956254386141
mp-19783,GdAg2,"[Element Ag, Element Gd]",2,Gd1 Ag2,0.0,-0.25027741000000003,9.483592013205675
mp-2021192,Mg2Ag,"[Element Ag, Element Mg]",2,Mg4 Ag2,0.0,-0.14287866833333301,4.507909080612145
mp-21109,LaAl4,"[Element Al, Element La]",2,La3 Al12,0.0,-0.378442886333333,3.876503206042371
mp-1995,PrC2,"[Element C, Element Pr]",2,Pr1 C2,0.0,-0.26972206055555303,5.585564540088853
mp-1976,CaGa4,"[Element Ca, Element Ga]",2,Ca1 Ga4,0.0,-0.42335285200000006,5.32222545109275
mp-1973,NbGa3,"[Element Ga, Element Nb]",2,Nb1 Ga3,0.0,-0.35195045499999905,7.976664600570443
mp-20593,VO2,"[Element O, Element V]",2,V16 O32,0.0,-2.505638494583335,4.110212713345812
mp-20656,DyMn12,"[Element Dy, Element Mn]",2,Dy1 Mn12,0.0,-0.063398836061008,6.638082586858268
mp-2221,Zr2Ag,"[Element Ag, Element Zr]",2,Zr2 Ag1,0.0,-0.10917206500000001,7.54300559155713
mp-21187,CaIn,"[Element Ca, Element In]",2,Ca4 In4,0.0,-0.5830892187499981,4.522365872714416
mp-22466,SrIn4,"[Element In, Element Sr]",2,Sr1 In4,0.0,-0.255546745333332,6.195486464601999
mp-2043365,YMg2,"[Element Mg, Element Y]",2,Y2 Mg4,0.0,-0.05610504,2.935763691391987
mp-2019746,Y2Mg,"[Element Mg, Element Y]",2,Y8 Mg4,0.0,-0.055189392499999004,3.748002506359319
mp-2016733,GaFe3,"[Element Fe, Element Ga]",2,Ga1 Fe3,0.0,-0.087329006874999,8.130953590939278
mp-2049132,Cs2In3,"[Element Cs, Element In]",2,Cs4 In6,0.21629999999999902,-0.298604841000002,4.954653315600731
mp-2120,HoAg2,"[Element Ag, Element Ho]",2,Ho1 Ag2,0.0,-0.323417429444444,10.116969523867779
mp-22678,Ce2Sb,"[Element Ce, Element Sb]",2,Ce4 Sb2,0.0,-0.9832181700000001,7.182920112652465
mp-20642,NdMn12,"[Element Mn, Element Nd]",2,Nd1 Mn12,0.0,0.051653498255968,8.067643960158952
mp-193,Zr2Cu,"[Element Cu, Element Zr]",2,Zr2 Cu1,0.0,-0.13412213,7.041590575522222
mp-1978391,CuTe,"[Element Cu, Element Te]",2,Cu1 Te1,0.0,0.026828514999998002,7.65278058016099
mp-21477,RbIn4,"[Element In, Element Rb]",2,Rb1 In4,0.0,-0.106576400833331,5.825024909252223
mp-2285616,KC2,"[Element C, Element K]",2,K1 C2,0.0,1.273233307687502,1.465169606194954
mp-21884,EuGa4,"[Element Eu, Element Ga]",2,Eu1 Ga4,0.0,-0.5073272430000031,7.080451584279471
mp-22481,KIn4,"[Element In, Element K]",2,K1 In4,0.0,-0.107644524783331,5.516580995014355
mp-22687,BaIn4,"[Element Ba, Element In]",2,Ba1 In4,0.0,-0.346905143333333,6.490194413517341
mp-2119,TbC2,"[Element C, Element Tb]",2,Tb1 C2,0.0,-0.36907816999999904,7.200851968879615
mp-22508,YMn12,"[Element Mn, Element Y]",2,Y1 Mn12,0.0,0.071023091246685,7.034554187307448
mp-22562,YS,"[Element S, Element Y]",2,Y2 S2,0.0,-2.035623006406251,2.582487218430344
mp-2123,Nb3Au2,"[Element Au, Element Nb]",2,Nb3 Au2,0.0,-0.185682601999997,12.497508504692004
mp-22482,ErMn12,"[Element Er, Element Mn]",2,Er1 Mn12,0.0,0.062168094836428,7.878109287370196
mp-22859,HgI,"[Element Hg, Element I]",2,Hg2 I2,1.6513,-0.443566703750002,7.187592340905009
mp-2486,UC2,"[Element C, Element U]",2,U1 C2,0.0,-0.23832087833333002,11.513735649626405
mp-2367,LaC2,"[Element C, Element La]",2,La1 C2,0.0,-0.330961655,5.27751940507633
mp-2289,CeAl4,"[Element Al, Element Ce]",2,Ce1 Al4,0.0,-0.34670088999999904,4.015858284323534
mp-24291,ThH2,"[Element H, Element Th]",2,Th1 H2,0.0,-0.56397526583333,9.518302660523716
mp-2297,NdC2,"[Element C, Element Nd]",2,Nd1 C2,0.0,-0.29459625249999905,5.866561236553788
mp-23177,HgBr,"[Element Br, Element Hg]",2,Hg2 Br2,2.2557,-0.689096676250002,7.3376805319879495
mp-22897,HgCl,"[Element Cl, Element Hg]",2,Hg2 Cl2,2.7243,-0.621251812500002,6.920946901522058
mp-24286,ZrH2,"[Element H, Element Zr]",2,Zr1 H2,0.0,-0.636864474166666,5.6373228706207374
mp-2592,Si2Mo,"[Element Mo, Element Si]",2,Si2 Mo1,0.0,-0.46614492,6.294884483450079
mp-2466,ErAu2,"[Element Au, Element Er]",2,Er1 Au2,0.0,-0.9648461144444501,15.340902687762908
mp-2630,SrC2,"[Element C, Element Sr]",2,Sr1 C2,1.6917,-0.124015866666664,3.240757387239209
mp-24726,TiH2,"[Element H, Element Ti]",2,Ti1 H2,0.0,-0.53385849472222,3.877011141294853
mp-22885,XeF2,"[Element F, Element Xe]",2,Xe1 F2,2.686199999999999,-0.7818107566666681,4.396080864795752
mp-23194,LaI2,"[Element I, Element La]",2,La1 I2,0.0,-1.6789853050000012,5.754749429186009
mp-2352325,HBr,"[Element Br, Element H]",2,H1 Br1,1.5517999999999992,-0.208418458124999,2.096164216412822
mp-2336,PrAl4,"[Element Al, Element Pr]",2,Pr1 Al4,0.0,-0.33956402233333305,3.9960053629508083
mp-2348,Zr2Au,"[Element Au, Element Zr]",2,Zr2 Au1,0.0,-0.468447070000001,9.929104771065182
mp-266,Zr2Pd,"[Element Pd, Element Zr]",2,Zr2 Pd1,0.0,-0.503216980000004,7.9753377134150565
mp-2614,HfAl3,"[Element Al, Element Hf]",2,Hf1 Al3,0.0,-0.42420176750000105,6.333924565192585
mp-2618,DyAg2,"[Element Ag, Element Dy]",2,Dy1 Ag2,0.0,-0.318310541666664,9.941405025708384
mp-2643,Ti3Cu4,"[Element Cu, Element Ti]",2,Ti3 Cu4,0.0,-0.13434752285714002,6.878857245886687
mp-2482,CaC2,"[Element C, Element Ca]",2,Ca1 C2,1.3593,-0.13510097333333201,2.221056574467479
mp-25229,CuO,"[Element Cu, Element O]",2,Cu4 O4,0.0,-0.353386787499998,3.731785226652237
mp-2554,Al3V,"[Element Al, Element V]",2,Al3 V1,0.0,-0.34389383499999904,3.798254844479554
mp-30009,KrF2,"[Element F, Element Kr]",2,Kr1 F2,2.92,-0.009234352222222,3.695848893438977
mp-2697,SrO2,"[Element O, Element Sr]",2,Sr1 O2,2.8495,-2.204479133333331,4.7311038520642335
mp-27298,Ca11Bi10,"[Element Bi, Element Ca]",2,Ca22 Bi20,0.0,-0.9456154535714251,6.222752422580245
mp-2839,CeC2,"[Element C, Element Ce]",2,Ce1 C2,0.0,-0.28938850666666605,6.101901582317124
mp-2705,VPt3,"[Element Pt, Element V]",2,V1 Pt3,0.0,-0.44345156750000203,17.87508708920754
mp-29635,PuGa,"[Element Ga, Element Pu]",2,Pu4 Ga4,0.0,-0.5618727506249991,11.885174089262552
mp-30359,TmAg2,"[Element Ag, Element Tm]",2,Tm1 Ag2,0.0,-0.35005619333333404,10.454478825698773
mp-30383,Hf2Au,"[Element Au, Element Hf]",2,Hf2 Au1,0.0,-0.47882607000000604,15.203433235381665
mp-269,TmC2,"[Element C, Element Tm]",2,Tm1 C2,0.0,-0.367530733958335,8.08153364842853
mp-30581,Hf2Cu,"[Element Cu, Element Hf]",2,Hf2 Cu1,0.0,-0.159939316666665,12.635812480611495
mp-27731,HfH2,"[Element H, Element Hf]",2,Hf1 H2,0.0,-0.542260452500002,11.663993812664256
mp-30305,Sr11Bi10,"[Element Bi, Element Sr]",2,Sr22 Bi20,0.0,-1.009788362857139,6.55098167205206
mp-30339,ErAg2,"[Element Ag, Element Er]",2,Er1 Ag2,0.0,-0.325917054444441,10.300912276420142
mp-2775,SrAl4,"[Element Al, Element Sr]",2,Sr1 Al4,0.0,-0.258510972,2.9331176178106713
mp-2706,SnF4,"[Element F, Element Sn]",2,Sn1 F4,3.114999999999999,-2.5714796239999993,5.00391189700986
mp-2731,TiGa3,"[Element Ga, Element Ti]",2,Ti1 Ga3,0.0,-0.37412842645833305,6.907833201746608
mp-30064,V16O3,"[Element O, Element V]",2,V32 O6,0.0,0.7290848549999991,4.469497007704616
mp-28753,NdI2,"[Element I, Element Nd]",2,Nd1 I2,0.0,-1.557796115833332,6.01125704463374
mp-29619,Sr2Bi,"[Element Bi, Element Sr]",2,Sr4 Bi2,0.0,-0.9151627383333311,5.359214544051086
mp-2768,Ba2As,"[Element As, Element Ba]",2,Ba4 As2,0.0,-0.8323990641666671,4.9299997199009855
mp-27668,Mg2Ga5,"[Element Ga, Element Mg]",2,Mg4 Ga10,0.0,-0.11567534178571401,5.082717769397954
mp-30358,TbAg2,"[Element Ag, Element Tb]",2,Tb1 Ag2,0.0,-0.313665986666666,9.74604567199628
mp-30409,Mn2Au,"[Element Au, Element Mn]",2,Mn2 Au1,0.0,-0.013939208793099001,10.958240272187115
mp-28919,Hf3Te2,"[Element Hf, Element Te]",2,Hf3 Te2,0.0,-0.6947484340000071,10.339139195444515
mp-30488,CdHg2,"[Element Cd, Element Hg]",2,Cd1 Hg2,0.0,0.026849116666667002,11.262215753654495
mp-30501,Ti2Cd,"[Element Cd, Element Ti]",2,Ti2 Cd1,0.0,-0.078128024444443,6.325683643039373
mp-3217237,Yb2Mg,"[Element Mg, Element Yb]",2,Yb4 Mg2,0.0,-0.054724831666670005,7.456405648866469
mp-30836,TaPd3,"[Element Pd, Element Ta]",2,Ta1 Pd3,0.0,-0.47368206683333003,13.612307232527904
mp-31221,ThMn12,"[Element Mn, Element Th]",2,Th1 Mn12,0.0,0.007972721140587,8.922610166108907
mp-30883,V4Zn5,"[Element V, Element Zn]",2,V4 Zn5,0.0,-0.07320986611111001,7.185875707487733
mp-31178,DyAl3,"[Element Al, Element Dy]",2,Dy1 Al3,0.0,-0.33733428875000004,5.020331139850116
mp-30624,Dy11Sn10,"[Element Dy, Element Sn]",2,Dy22 Sn20,0.0,-0.7284756456349081,8.632683936541325
mp-30852,TiPt8,"[Element Pt, Element Ti]",2,Ti1 Pt8,0.0,-0.49484625518518505,19.53749531201555
mp-313,YC2,"[Element C, Element Y]",2,Y1 C2,0.0,-0.172125136666667,4.492134868940157
mp-335,BaGa4,"[Element Ba, Element Ga]",2,Ba1 Ga4,0.0,-0.45104950200000005,6.1306434825757155
mp-30870,SmZn12,"[Element Sm, Element Zn]",2,Sm1 Zn12,0.0,-0.193443477307692,7.825066087921021
mp-30886,YZn12,"[Element Y, Element Zn]",2,Y1 Zn12,0.0,-0.20492847692307803,7.388836224064127
mp-32565,Tb4H9,"[Element H, Element Tb]",2,Tb4 H9,0.0,-0.7731245506730771,7.589928470513592
mp-30614,ErZn12,"[Element Er, Element Zn]",2,Er1 Zn12,0.0,-0.19413086717948902,8.111973738404966
mp-3346969,Ca2Mg,"[Element Ca, Element Mg]",2,Ca4 Mg2,0.0,-0.043244354999999006,1.6336234320099692
mp-30599,Ti2Cu3,"[Element Cu, Element Ti]",2,Ti2 Cu3,0.0,-0.089345638666665,6.971094256707761
mp-30776,PrMg12,"[Element Mg, Element Pr]",2,Pr1 Mg12,0.0,-0.009906210897435,2.319379613090343
mp-30685,ZrGa3,"[Element Ga, Element Zr]",2,Zr1 Ga3,0.0,-0.513307626249998,7.258696839494758
mp-32994,Hf4N3,"[Element Hf, Element N]",2,Hf4 N3,0.0,-1.70173151232143,13.659997973733162
mp-31379,Zr2Sb,"[Element Sb, Element Zr]",2,Zr4 Sb2,0.0,-0.741361555000002,7.407666888419502
mp-31138,MnPd3,"[Element Mn, Element Pd]",2,Mn2 Pd6,0.0,-0.228938158232756,10.384218333741561
mp-30703,Hf11Ga10,"[Element Ga, Element Hf]",2,Hf22 Ga20,0.0,-0.568396866904761,11.4148177102328
mp-30789,U2Mo,"[Element Mo, Element U]",2,U2 Mo1,0.0,0.068760293333326,16.627488444909705
mp-30772,NdMg12,"[Element Mg, Element Nd]",2,Nd1 Mg12,0.0,-0.006437292115383001,2.345263351127176
mp-323,LaF3,"[Element F, Element La]",2,La1 F3,4.816,-4.336221267500001,6.4722524652226845
mp-567842,TaBe12,"[Element Be, Element Ta]",2,Ta1 Be12,0.0,-0.13860669825641,4.273601358660808
mp-555,Fe8N,"[Element Fe, Element N]",2,Fe8 N1,0.0,-0.069032481666667,7.591604253763501
mp-568718,HfAl3,"[Element Al, Element Hf]",2,Hf2 Al6,0.0,-0.43728276999999904,6.398333140073273
mp-570286,BiSe,"[Element Bi, Element Se]",2,Bi2 Se2,0.0,-0.09468154786458101,4.197760259783184
mp-395,ZrAl3,"[Element Al, Element Zr]",2,Zr2 Al6,0.0,-0.530828846249999,4.15470778913101
mp-556048,Nb2O5,"[Element Nb, Element O]",2,Nb16 O40,1.5566,-3.027670708392857,4.32188433489156
mp-568912,Be12Nb,"[Element Be, Element Nb]",2,Be12 Nb1,0.0,-0.148409677692308,2.95064540871129
mp-454,NaGa4,"[Element Ga, Element Na]",2,Na1 Ga4,0.0,-0.138768106275861,5.124197298645112
mp-560,TmAu2,"[Element Au, Element Tm]",2,Tm1 Au2,0.0,-0.9735891799999951,15.53099604681277
mp-568069,Ti2Bi,"[Element Bi, Element Ti]",2,Ti4 Bi2,0.0,-0.173736622777781,8.20827325093388
mp-536,ThZn4,"[Element Th, Element Zn]",2,Th1 Zn4,0.0,-0.324965814,8.857229286557214
mp-569167,Nb4N3,"[Element N, Element Nb]",2,Nb4 N3,0.0,-1.06429716755952,8.037975613002434
mp-542595,Ge2W,"[Element Ge, Element W]",2,Ge2 W1,0.0,0.126662406666667,12.092976190662753
mp-341,PbF4,"[Element F, Element Pb]",2,Pb1 F4,1.9022000000000001,-1.990905017999998,6.486087829728194
mp-568827,Be12W,"[Element Be, Element W]",2,Be12 W1,0.0,-0.10411236923076801,4.448328426834965
mp-541840,DyC2,"[Element C, Element Dy]",2,Dy1 C2,0.0,-0.37002266166666603,7.481781350919697
mp-542293,Ba11Bi10,"[Element Ba, Element Bi]",2,Ba22 Bi20,0.0,-0.890440683333335,6.682750616691437
mp-542915,TiAl3,"[Element Al, Element Ti]",2,Ti1 Al3,0.0,-0.43388963166666605,3.420287434298525
mp-567872,Ba2Bi,"[Element Ba, Element Bi]",2,Ba4 Bi2,0.0,-0.772414103333328,5.797343297084497
mp-570179,TbAu2,"[Element Au, Element Tb]",2,Tb1 Au2,0.0,-0.8575134788888891,14.581783873186437
mp-569535,Ca2Bi,"[Element Bi, Element Ca]",2,Ca4 Bi2,0.0,-0.907907213333336,4.7961848854724245
mp-555211,SiO2,"[Element O, Element Si]",2,Si16 O32,5.6913,-3.253195799791667,1.547910765842822
mp-568052,K2Ga3,"[Element Ga, Element K]",2,K4 Ga6,0.21069999999999903,-0.1379900434,3.500151698943761
mp-570197,Bi2Pd,"[Element Bi, Element Pd]",2,Bi2 Pd1,0.0,-0.14976592666666402,11.462047240033977
mp-706,HgF,"[Element F, Element Hg]",2,Hg2 F2,1.7704,-1.314067998750001,9.86323787350034
mp-715262,FeO,"[Element Fe, Element O]",2,Fe2 O2,0.0,-1.4722393325,5.577375605140057
mp-600003,SiO2,"[Element O, Element Si]",2,Si16 O32,5.5474,-3.2583776395833333,1.790488309104226
mp-623452,Mn3Bi,"[Element Bi, Element Mn]",2,Mn3 Bi1,0.0,0.393624719051722,9.030051572260083
mp-570491,TaNi3,"[Element Ni, Element Ta]",2,Ta1 Ni3,0.0,-0.32682784683333205,12.317600966008348
mp-581747,PuGa,"[Element Ga, Element Pu]",2,Pu4 Ga4,0.0,-0.25313582562500103,13.351548958423692