material_id,formula_pretty,elements,nelements,composition,band_gap,formation_energy_per_atom,density
mp-1104544,Sn3O4,"[Element O, Element Sn]",2,Sn6 O8,0.9344999999999991,-1.5793956507142841,5.430273676109468
mp-1213423,Eu2As3,"[Element As, Element Eu]",2,Eu16 As24,0.0,-0.9401682342500031,6.666782757576029
mp-1776732,Bi2O5,"[Element Bi, Element O]",2,Bi4 O10,0.0,-1.024931295000001,6.691898976485798
mp-1019078,ReN2,"[Element N, Element Re]",2,Re2 N4,0.0,0.11204035652778001,12.446974306230679
mp-1197211,Sb3O8,"[Element O, Element Sb]",2,Sb18 O48,0.001299999999999,-1.615714677878787,5.702159865657893
mp-1042656,W3O8,"[Element O, Element W]",2,W6 O16,1.8294000000000001,-2.05818200590909,7.885241734645503
mp-1205379,GeH4,"[Element Ge, Element H]",2,Ge4 H16,5.7745,-0.027599210500000002,1.206172390536822
mp-27340,ReCl4,"[Element Cl, Element Re]",2,Re4 Cl16,0.0,-0.6772989286111111,3.669623332069609
mp-1080854,CeSe2,"[Element Ce, Element Se]",2,Ce18 Se36,1.0131000000000001,-1.394091500821758,1.805480684313484
mp-1205212,B2F3,"[Element B, Element F]",2,B128 F192,2.4325,-2.173734822270833,1.773600292728781
mp-1227634,Be4B25,"[Element B, Element Be]",2,Be8 B50,0.0,0.210430824856321,2.407871191517505
mp-27701,Mo9O26,"[Element Mo, Element O]",2,Mo18 O52,0.7422000000000001,-1.932169015714285,4.038565073190917
mp-2669,Mo8O23,"[Element Mo, Element O]",2,Mo16 O46,0.337099999999999,-1.931281322903225,4.0571302753265694
mp-28777,Mo9O25,"[Element Mo, Element O]",2,Mo18 O50,0.0,-1.936496298676471,3.860729251563538
mp-31010,Ca2As3,"[Element As, Element Ca]",2,Ca16 As24,0.284299999999999,-1.0303039755,4.19255051621283
mp-2022276,Te2Au,"[Element Au, Element Te]",2,Te8 Au4,0.0,-0.08722446416667101,8.85914046820278
mp-29422,HfCl4,"[Element Cl, Element Hf]",2,Hf2 Cl8,4.1668,-2.028435395,3.687017460979498
mp-560155,SiO2,"[Element O, Element Si]",2,Si18 O36,5.8378,-3.245716532222223,1.7564332820520412
mp-570763,VCl4,"[Element Cl, Element V]",2,V4 Cl16,0.0,-1.2778867724999992,1.430245091554311
mp-32625,MoCl4,"[Element Cl, Element Mo]",2,Mo6 Cl24,0.0,-1.004682186666667,2.979122565967132
mp-569175,ZrCl4,"[Element Cl, Element Zr]",2,Zr2 Cl8,3.6058,-2.006411403,2.651727904181665
mp-31070,As8S9,"[Element As, Element S]",2,As16 S18,1.7164000000000001,-0.15652218060661702,3.1884726690986662
mp-571235,ZrI4,"[Element I, Element Zr]",2,Zr6 I24,2.021,-1.227871009333331,4.502556509294867
mp-706630,B5H7,"[Element B, Element H]",2,B40 H56,3.606099999999999,-0.095264628645833,0.958639553801726
mp-560190,Mo8O23,"[Element Mo, Element O]",2,Mo32 O92,0.9108,-1.935219598870967,4.058628270383052
mp-831269,V2O5,"[Element O, Element V]",2,V28 O70,2.3291,-2.263051710612245,2.811388185680432
mp-865511,VCl4,"[Element Cl, Element V]",2,V4 Cl16,0.120799999999999,-1.243363648499999,2.030605430864295
mp-649605,W25O73,"[Element O, Element W]",2,W50 O146,0.0,-2.16928806510204,6.741921542204058
mp-622497,V3O5,"[Element O, Element V]",2,V12 O20,0.0,-2.518041229687499,4.444064038144065
mp-645339,Fe5C2,"[Element C, Element Fe]",2,Fe20 C8,0.0,0.061937716071428006,7.759702922401435
mp-850009,FeS2,"[Element Fe, Element S]",2,Fe4 S8,0.0,-0.409372138333332,3.804287438394601
mp-545488,SiO2,"[Element O, Element Si]",2,Si4 O8,0.334499999999999,-2.569669324166666,2.377901050372575
mp-759943,Al2O3,"[Element Al, Element O]",2,Al32 O48,4.3139,-3.391415691124999,3.57452754463431
mp-1201266,Tb5Ir3,"[Element Ir, Element Tb]",2,Tb20 Ir12,0.0,-0.7873600635416641,12.055139066229692
mp-1179215,SrO10,"[Element O, Element Sr]",2,Sr4 O40,0.0,-0.130853805454545,2.946607256890533
mp-1196886,Ho5Ga3,"[Element Ga, Element Ho]",2,Ho20 Ga12,0.0,-0.481680801874998,8.592864100832811
mp-1201760,Er5Ir3,"[Element Er, Element Ir]",2,Er20 Ir12,0.0,-0.859719146249996,12.977269637789435
mp-1197997,Ho5Ir3,"[Element Ho, Element Ir]",2,Ho20 Ir12,0.0,-0.8274089021874941,12.674554343619358
mp-1200226,Dy5Ir3,"[Element Dy, Element Ir]",2,Dy20 Ir12,0.0,-0.806859844479165,12.39032977650665
mp-1199558,Sm5Ir3,"[Element Ir, Element Sm]",2,Sm20 Ir12,0.0,-0.7872794875000011,11.095630342624563
mp-1205022,CsTe7,"[Element Cs, Element Te]",2,Cs16 Te112,0.113499999999999,-0.20257257208333002,5.340071073453789
mp-1178787,VO2,"[Element O, Element V]",2,V16 O32,1.2334,-2.439761711250001,3.830507350297454
mp-202,TaTe4,"[Element Ta, Element Te]",2,Ta12 Te48,0.0,-0.5969074789666651,7.554486899908088
mp-1198712,Y5Ir3,"[Element Ir, Element Y]",2,Y20 Ir12,0.0,-0.7527327971875001,8.96675978736393
mp-1210280,NbSe4,"[Element Nb, Element Se]",2,Nb12 Se48,0.0,-0.605151837538884,5.734683126813422
mp-1545458,Tl5Se3,"[Element Se, Element Tl]",2,Tl20 Se12,0.0,-0.414464016523439,8.963642451788527
mp-1201811,SrO10,"[Element O, Element Sr]",2,Sr4 O40,0.0,-0.127251842954545,2.930640924176679
mp-18773,WO3,"[Element O, Element W]",2,W4 O12,1.3319,-2.184858871875,7.109147318771005
mp-1198195,Tm5Ir3,"[Element Ir, Element Tm]",2,Tm20 Ir12,0.0,-0.8790599265625061,13.229958352075961
mp-1199235,La5Ir3,"[Element Ir, Element La]",2,La20 Ir12,0.0,-0.670852892500001,9.739185480554168
mp-1205021,Pr5Ir3,"[Element Ir, Element Pr]",2,Pr20 Ir12,0.0,-0.6645168116666651,10.046124403199206
mp-672256,Y5Ga3,"[Element Ga, Element Y]",2,Y20 Ga12,0.0,-0.497537325624999,5.244029200586079
mp-669594,Pr5Ga3,"[Element Ga, Element Pr]",2,Pr20 Ga12,0.0,-0.525225250104163,6.552666524371112
mp-568220,NbTe4,"[Element Nb, Element Te]",2,Nb24 Te96,0.0,-0.672268343083332,6.526140548132295
mp-21538,Ba5Ge3,"[Element Ba, Element Ge]",2,Ba20 Ge12,0.0,-0.5011784303124991,4.862584901743787
mp-30522,Nd5Ir3,"[Element Ir, Element Nd]",2,Nd20 Ir12,0.0,-0.716647410312496,10.412540576586894
mp-21657,Tl5Se3,"[Element Se, Element Tl]",2,Tl20 Se12,0.0,-0.406601638710945,8.830284574992229
mp-672217,La5Ga3,"[Element Ga, Element La]",2,La20 Ga12,0.0,-0.56255211625,6.24562588000527
mp-21658,Sm5Ga3,"[Element Ga, Element Sm]",2,Sm20 Ga12,0.0,-0.562291793749999,7.338025179083122
mp-681150,Pu5Rh3,"[Element Pu, Element Rh]",2,Pu20 Rh12,0.0,-0.07802005796874101,14.484969791016441
mp-2752790,Pu5Rh3,"[Element Pu, Element Rh]",2,Pu20 Rh12,0.0,-0.626683079531247,14.31007075236728
mp-680259,TaTe4,"[Element Ta, Element Te]",2,Ta24 Te96,0.0,-0.600058537466665,7.48143894074804
mp-650328,NbTe4,"[Element Nb, Element Te]",2,Nb12 Te48,0.0,-0.6687333711666661,6.6804999182250135
mp-669320,Ba5Si3,"[Element Ba, Element Si]",2,Ba20 Si12,0.0,-0.300150794999999,4.216265451859642
mp-2803876,AgO,"[Element Ag, Element O]",2,Ag2 O2,0.0,-0.442571765833331,6.730482161807199
mp-554755,SiO2,"[Element O, Element Si]",2,Si32 O64,5.606400000000001,-3.2494789109375,1.4651788999708462
mp-677074,PbO,"[Element O, Element Pb]",2,Pb2 O2,0.0,-1.060903404999998,8.373320733849706
mp-1080637,CeSe2,"[Element Ce, Element Se]",2,Ce32 Se64,0.9464999999999991,-1.388097373854165,1.45453206918837
mp-1007660,IrN,"[Element Ir, Element N]",2,Ir2 N2,0.0,0.358189150000001,15.042696741612849
mp-1417269,FeN,"[Element Fe, Element N]",2,Fe2 N2,0.0,0.733763642499998,4.116780562523187
mp-1097032,CrN2,"[Element Cr, Element N]",2,Cr32 N64,0.0819,-0.12388114218749902,1.534725866483267
mp-288,PtS,"[Element Pt, Element S]",2,Pt2 S2,0.38480000000000003,-0.5334567439062461,10.100456437172683
mp-1214760,AuI2,"[Element Au, Element I]",2,Au2 I4,0.0,-0.20558824833333403,5.724678674125931
mp-1430841,NiN,"[Element N, Element Ni]",2,Ni2 N2,0.0,0.875643596666666,4.452742265475101
mp-1692,CuO,"[Element Cu, Element O]",2,Cu2 O2,0.0,-0.9427949424999991,6.155599921960791
mp-600080,SiO2,"[Element O, Element Si]",2,Si64 O128,5.6971,-3.244730174427083,1.459035126146446
mp-1019097,SiC2,"[Element C, Element Si]",2,Si2 C4,0.0,0.358968917921052,2.47823236008665
mp-600002,SiO2,"[Element O, Element Si]",2,Si8 O16,5.4674,-3.2505974675,1.774082270999887
mp-697179,ZrH,"[Element H, Element Zr]",2,Zr4 H4,0.0,-0.491278955624999,5.8500276792627055
mp-753682,FeO,"[Element Fe, Element O]",2,Fe4 O4,0.0,-1.3944173925,4.706689133109818
mp-570108,ThC2,"[Element C, Element Th]",2,Th2 C4,0.0,-0.071120068333328,8.820065897075244
mp-1336,PdO,"[Element O, Element Pd]",2,Pd2 O2,0.0,-0.789826404999999,8.117605863761803
mp-690760,TiH,"[Element H, Element Ti]",2,Ti4 H4,0.0,-0.408514614791668,4.089972214240791
mp-1210339,NiC4,"[Element C, Element Ni]",2,Ni4 C16,0.0,1.7218630235,1.8931660716798682
mp-1214775,AuBr2,"[Element Au, Element Br]",2,Au2 Br4,0.0,-0.337731516666666,5.0538949344254
mp-639480,SiO2,"[Element O, Element Si]",2,Si18 O36,5.6227,-3.236823410555556,1.671731446533839
mp-755073,CrO,"[Element Cr, Element O]",2,Cr4 O4,0.0,-1.967088979999999,4.800886276421006
mp-7947,PtO,"[Element O, Element Pt]",2,Pt2 O2,0.0,-0.584307552499999,13.11196089417104
mp-999293,PdN,"[Element N, Element Pd]",2,Pd2 N2,0.0,0.6633635575000001,8.13109512743232
mp-999264,ReN,"[Element N, Element Re]",2,Re2 N2,0.0,0.307710012291671,14.514559969799107
mp-999086,TcN,"[Element N, Element Tc]",2,Tc2 N2,0.0,0.17987847614583402,8.222832680215635
mp-999307,OsN,"[Element N, Element Os]",2,Os2 N2,0.0,0.4496431375,15.158342934830475
mp-554665,SiO2,"[Element O, Element Si]",2,Si8 O16,5.0136,-3.067913875416666,2.117190556733614
mp-20652,PbF3,"[Element F, Element Pb]",2,Pb4 F12,1.9078,-2.26442824375,6.925900351601574
mp-1974672,K2O,"[Element K, Element O]",2,K16 O8,1.390399999999999,-1.107875917083333,2.267417016147211
mp-1080341,CeSe2,"[Element Ce, Element Se]",2,Ce8 Se16,0.7131999999999991,-1.400489593229165,2.40679311094979
mp-1079127,Ti2H3,"[Element H, Element Ti]",2,Ti4 H6,0.0,-0.481046641916667,3.965001124972398
mp-1080122,Bi2O3,"[Element Bi, Element O]",2,Bi4 O6,0.0,-1.496630602000001,8.91403100211691
mp-1201202,Cd3As2,"[Element As, Element Cd]",2,Cd96 As64,0.1409,-0.045549330562499005,5.9224616957331975
mp-555283,V3S,"[Element S, Element V]",2,V24 S8,0.0,-0.6714042128125001,6.147883712000475
mp-567846,Ta3P,"[Element P, Element Ta]",2,Ta24 P8,0.0,-0.6405896324940481,14.919586518568671
mp-1080856,CeSe2,"[Element Ce, Element Se]",2,Ce16 Se32,0.9867,-1.401622352187498,2.578391743821756
mp-680580,Zn3As2,"[Element As, Element Zn]",2,Zn96 As64,0.24800000000000003,-0.1436223710625,5.42354724097907
mp-559347,SiO2,"[Element O, Element Si]",2,Si16 O32,5.3784,-3.254188240208333,2.449122480454502
mp-571383,PdSe,"[Element Pd, Element Se]",2,Pd24 Se24,0.17830000000000001,-0.391119458489583,7.661186290190641
mp-726,SeO2,"[Element O, Element Se]",2,Se8 O16,3.2874,-1.154143574114583,4.137816735565543
mp-22633,Pb3O4,"[Element O, Element Pb]",2,Pb12 O16,1.133,-1.44698115428571,8.662164587521179
mp-1080363,CeSe2,"[Element Ce, Element Se]",2,Ce16 Se32,1.0444,-1.3940918621874991,2.067748022944649
mp-1208498,Ti3Zn22,"[Element Ti, Element Zn]",2,Ti12 Zn88,0.0,-0.12180320939999902,6.90284740141328
mp-555556,SiO2,"[Element O, Element Si]",2,Si16 O32,5.774,-3.2569215118750012,2.001834016700103
mp-1106135,Ho3Al2,"[Element Al, Element Ho]",2,Ho12 Al8,0.0,-0.37944968699999804,7.223408297941876
mp-1014265,Zr2N,"[Element N, Element Zr]",2,Zr4 N2,0.0,-1.4107297929166691,6.731737935510314
mp-1014366,CrN2,"[Element Cr, Element N]",2,Cr2 N4,0.0,0.015229538750001001,4.631727020883924
mp-1018886,PdO2,"[Element O, Element Pd]",2,Pd2 O4,0.0,-0.7275267350000001,7.144507572307173
mp-1106087,Ce3Ga2,"[Element Ce, Element Ga]",2,Ce12 Ga8,0.0,-0.49272392399999704,7.338876385239806
mp-1039208,Ca2Zn,"[Element Ca, Element Zn]",2,Ca4 Zn2,0.0,-0.015982653333332,2.200978214057103
mp-1018664,CeO2,"[Element Ce, Element O]",2,Ce2 O4,2.1485,-3.8078617183333323,5.962115660346726
mp-1077716,PtO2,"[Element O, Element Pt]",2,Pt2 O4,0.0,-0.886159448333332,10.984785263854587
mp-1077353,TiH2,"[Element H, Element Ti]",2,Ti2 H4,0.0,-0.315251233055554,3.391820204050164
mp-1071541,YbBr2,"[Element Br, Element Yb]",2,Yb2 Br4,4.3169,-1.656402905000002,6.13996676177338
mp-1001023,BeC2,"[Element Be, Element C]",2,Be2 C4,1.669699999999999,0.849215976666665,1.878479793418562
mp-1058,PdF2,"[Element F, Element Pd]",2,Pd2 F4,0.0,-1.343499204999998,5.6503621766039505
mp-1080268,CeSe2,"[Element Ce, Element Se]",2,Ce2 Se4,0.169599999999999,-1.792852633229165,5.082777575577952
mp-10845,Te2Ir,"[Element Ir, Element Te]",2,Te4 Ir2,0.0,-0.07461982624999,9.401606279294379
mp-1184048,Eu2N,"[Element Eu, Element N]",2,Eu4 N2,0.0,-0.840460972083334,7.342783648652081
mp-1147607,InS2,"[Element In, Element S]",2,In2 S4,0.0,-0.28238690463541805,3.9648206341449432
mp-1039508,Ce2Mg,"[Element Ce, Element Mg]",2,Ce4 Mg2,0.0,0.628730220555553,4.671638077377358
mp-1093993,ZnO,"[Element O, Element Zn]",2,Zn4 O4,0.7376,-1.7579994199999982,5.450391709469147
mp-11725,CO2,"[Element C, Element O]",2,C4 O8,6.4419,-1.761778511666667,1.6805138623607352
mp-1183892,EuCl2,"[Element Cl, Element Eu]",2,Eu2 Cl4,1.210899999999999,-2.6282664433333363,3.768782334891043
mp-1183765,CrBr2,"[Element Br, Element Cr]",2,Cr2 Br4,0.0,-0.9965445283333331,4.128867858838867
mp-1039192,MgAl2,"[Element Al, Element Mg]",2,Mg2 Al4,0.0,0.668954031666666,1.659547417361316
mp-1094301,SrMg2,"[Element Mg, Element Sr]",2,Sr2 Mg4,0.0,0.608158276666666,1.513916863714398
mp-1094628,MgGa2,"[Element Ga, Element Mg]",2,Mg2 Ga4,0.0,0.306815434999999,3.5114770607466532
mp-1039029,MgCd2,"[Element Cd, Element Mg]",2,Mg2 Cd4,0.0,0.367568293333334,4.192111607027285
mp-1094222,Hf2Mg,"[Element Hf, Element Mg]",2,Hf4 Mg2,0.0,1.355568336666667,7.903307883593677
mp-1193202,Mo2Ru,"[Element Mo, Element Ru]",2,Mo20 Ru10,0.0,0.023083231111111,10.52168464533697
mp-1189634,Ga3Ir,"[Element Ga, Element Ir]",2,Ga12 Ir4,0.0,-0.388645419374999,9.481187116211787
mp-1192954,Nb2Pt,"[Element Nb, Element Pt]",2,Nb20 Pt10,0.0,-0.516182265666672,12.268732727810276
mp-1188363,Na3Ru,"[Element Na, Element Ru]",2,Na12 Ru4,0.0,0.8733087150862061,2.6600124828869482
mp-1188393,Ga3Re,"[Element Ga, Element Re]",2,Ga12 Re4,0.0,-0.11071175874999901,8.911178999022779
mp-1184708,GeBr2,"[Element Br, Element Ge]",2,Ge2 Br4,1.4259,-0.895290331666667,4.219616564684244
mp-1186558,PmBr2,"[Element Br, Element Pm]",2,Pm2 Br4,0.0,-1.9656909075,4.936768451756345
mp-1188977,Ga3Rh,"[Element Ga, Element Rh]",2,Ga12 Rh4,0.0,-0.424830423749999,7.4780242598690805
mp-1187158,SrBr2,"[Element Br, Element Sr]",2,Sr2 Br4,4.386,-2.474815540833335,3.478345468815106
mp-1184273,EuBr2,"[Element Br, Element Eu]",2,Eu2 Br4,1.1673,-2.358312759000007,4.50286482569299
mp-1195396,Nb4Ga5,"[Element Ga, Element Nb]",2,Nb64 Ga80,0.0,-0.40410559166666205,7.850788477461925
mp-1238787,NaO2,"[Element Na, Element O]",2,Na2 O4,0.0,-0.842041427126436,2.12868814827235
mp-1188702,Na3Os,"[Element Na, Element Os]",2,Na12 Os4,0.0,1.178121685086207,3.985680566747232
mp-1193531,Ta2Al,"[Element Al, Element Ta]",2,Ta20 Al10,0.0,-0.29570217388888903,12.66965539587097
mp-1207421,Zr3Zn2,"[Element Zn, Element Zr]",2,Zr12 Zn8,0.0,-0.22908921149999903,6.842639116088159
mp-1184879,IBr2,"[Element Br, Element I]",2,I2 Br4,0.0,-0.29838048500000003,3.536254703780893
mp-1187178,SrI2,"[Element I, Element Sr]",2,Sr2 I4,3.8101000000000003,-1.940245875833326,3.826432272004467
mp-1184741,HoBr2,"[Element Br, Element Ho]",2,Ho2 Br4,0.0,-1.851612456666664,5.596623139093773
mp-1193848,Zr2Re,"[Element Re, Element Zr]",2,Zr20 Re10,0.0,-0.128382913166668,10.30907659933355
mp-1192771,OsW2,"[Element Os, Element W]",2,Os10 W20,0.0,0.007132187111104001,19.623419088104253
mp-1188283,V8N,"[Element N, Element V]",2,V16 N2,0.0,-0.37719657319444305,6.259381177123014
mp-1205302,TcO2,"[Element O, Element Tc]",2,Tc2 O4,0.0,-1.804788910833333,6.8527580075564405
mp-1194495,Ta2Au,"[Element Au, Element Ta]",2,Ta20 Au10,0.0,-0.07043042655555601,17.605227596484408
mp-16723,Y3Al2,"[Element Al, Element Y]",2,Y12 Al8,0.0,-0.3856520915,4.089436990153181
mp-18167,Ca3Cd2,"[Element Ca, Element Cd]",2,Ca12 Cd8,0.0,-0.27349162049999803,3.671664974463572
mp-2019999,BiO2,"[Element Bi, Element O]",2,Bi4 O8,0.0,-1.387369848333333,8.664887755238118
mp-13151,BN,"[Element B, Element N]",2,B4 N4,4.7783,-1.233803346875001,3.302142370637725
mp-2237,TeO2,"[Element O, Element Te]",2,Te2 O4,0.0,-1.2695452855555551,5.9654445818888515
mp-18427,Nb2Al,"[Element Al, Element Nb]",2,Nb20 Al10,0.0,-0.345805192333333,6.8271069171903545
mp-12875,ReO2,"[Element O, Element Re]",2,Re2 O4,0.0,-1.773937595833333,10.893177295164286
mp-18614,In3Rh,"[Element In, Element Rh]",2,In12 Rh4,0.0,-0.38318283499999906,8.33944144768828
mp-19094,VO2,"[Element O, Element V]",2,V2 O4,0.0,-2.480275698333334,4.453708752294829
mp-1249,MgF2,"[Element F, Element Mg]",2,Mg2 F4,6.824,-3.8240409166666662,3.187243199654242
mp-20725,PbO2,"[Element O, Element Pb]",2,Pb2 O4,0.0,-1.299647031666666,9.340001787646925
mp-20994,TaO2,"[Element O, Element Ta]",2,Ta2 O4,0.0,-3.032669320777778,9.807658236443672
mp-13470,Zr3Al2,"[Element Al, Element Zr]",2,Zr12 Al8,0.0,-0.4503824825,5.320003503131396
mp-17974,Na3Hg2,"[Element Hg, Element Na]",2,Na12 Hg8,0.0,-0.23126353700000002,5.72090014418417
mp-1619,Ba3Si4,"[Element Ba, Element Si]",2,Ba12 Si16,0.0,-0.367520217857141,3.928961051630076
mp-16508,Lu3Al2,"[Element Al, Element Lu]",2,Lu12 Al8,0.0,-0.37816298399999304,8.088488758589795
mp-21596,Ba3Ge4,"[Element Ba, Element Ge]",2,Ba12 Ge16,0.0,-0.568540451071428,5.055930630788356
mp-1873,ZnF2,"[Element F, Element Zn]",2,Zn2 F4,3.4592,-2.561514461666667,4.9560901447029195
mp-19372,WO2,"[Element O, Element W]",2,W2 O4,0.0,-2.036666524999999,9.601453835391395
mp-22236,In3Co,"[Element Co, Element In]",2,In12 Co4,0.0,-0.016332998125001,8.151843223306399
mp-20559,Ga3Co,"[Element Co, Element Ga]",2,Ga12 Co4,0.0,-0.200663183125,7.290474998820155
mp-19177,CrO2,"[Element Cr, Element O]",2,Cr2 O4,0.041999999999999,-2.04770086166665,4.924261398838221
mp-20488,CrF4,"[Element Cr, Element F]",2,Cr4 F16,1.0142,-2.600631224499999,3.459406884007943
mp-2723,IrO2,"[Element Ir, Element O]",2,Ir2 O4,0.0,-1.260892841666664,11.548302349446649
mp-31181,Er3Al2,"[Element Al, Element Er]",2,Er12 Al8,0.0,-0.373521389499998,7.436799880346564
mp-510408,MnO2,"[Element Mn, Element O]",2,Mn2 O4,0.0,-1.776084879310346,5.200624691225469
mp-29771,MgC2,"[Element C, Element Mg]",2,Mg2 C4,2.5620000000000003,0.43023104666666706,2.061823024189152
mp-22904,CaCl2,"[Element Ca, Element Cl]",2,Ca2 Cl4,5.3533,-2.645431978333333,2.1470561707390132
mp-2657,TiO2,"[Element O, Element Ti]",2,Ti4 O8,1.780999999999999,-3.464416747777778,4.236221754389662
mp-23710,MgH2,"[Element H, Element Mg]",2,Mg2 H4,3.709699999999999,-0.2827190725,1.457555666854439
mp-2533,NbO2,"[Element Nb, Element O]",2,Nb2 O4,0.0,-2.85016904125,5.71910918533139
mp-556911,FeF2,"[Element F, Element Fe]",2,Fe2 F4,1.6921,-2.590574678333332,4.318802548760486
mp-558928,KrF2,"[Element F, Element Kr]",2,Kr2 F4,2.7303,0.001188317777777,3.365379521066003
mp-470,GeO2,"[Element Ge, Element O]",2,Ge2 O4,1.2157,-2.156655663333334,6.20512814957392
mp-510536,MoO2,"[Element Mo, Element O]",2,Mo4 O8,0.0,-2.021555188333332,6.19871842655709
mp-559798,NiF2,"[Element F, Element Ni]",2,Ni2 F4,4.9116,-2.23065729,4.858200007945914
mp-3216741,YbO2,"[Element O, Element Yb]",2,Yb2 O4,0.0,-2.9303392808333353,7.667134078617082
mp-555934,VF2,"[Element F, Element V]",2,V2 F4,0.0,-3.0166454050000002,3.970077635911695
mp-555908,CoF2,"[Element Co, Element F]",2,Co2 F4,2.2721,-2.341685073333334,4.666660251169866
mp-570560,Na3Hg2,"[Element Hg, Element Na]",2,Na12 Hg8,0.0,-0.183065784000001,5.968436227179093
mp-607450,In3Ru,"[Element In, Element Ru]",2,In12 Ru4,0.229,-0.23597294750000203,8.190457243982019
mp-644607,CO2,"[Element C, Element O]",2,C2 O4,6.3098,-1.7633239850000022,1.744820943895653
mp-570844,Ga3Os,"[Element Ga, Element Os]",2,Ga12 Os4,0.676999999999999,-0.31428668125000303,9.280645208210931
mp-560902,MnF2,"[Element F, Element Mn]",2,Mn2 F4,2.536299999999999,-2.966748559310345,3.9261829704143523
mp-571166,CaBr2,"[Element Br, Element Ca]",2,Ca2 Br4,4.4482,-2.400654233333333,3.269983382807338
mp-570232,TbCl3,"[Element Cl, Element Tb]",2,Tb4 Cl12,4.5219000000000005,-2.522903324999999,3.661984874174137
mp-725,RhO2,"[Element O, Element Rh]",2,Rh2 O4,0.0,-1.218954728333332,7.20074117228947
mp-571624,Dy3Al2,"[Element Al, Element Dy]",2,Dy12 Al8,0.0,-0.37773842549999803,7.030633410831005