material_id,formula_pretty,elements,nelements,composition,band_gap,formation_energy_per_atom,density
mp-1182590,As2O9,"[Element As, Element O]",2,As8 O36,0.0,-0.283536301136364,2.363941210030743
mp-1190529,BPd5,"[Element B, Element Pd]",2,B4 Pd20,0.0,-0.22070651291666302,10.807518169547993
mp-1182022,BiSe,"[Element Bi, Element Se]",2,Bi4 Se4,0.0,-0.232647574114579,7.051149921658852
mp-1182327,BaO4,"[Element Ba, Element O]",2,Ba4 O16,0.0,-1.2030758435,3.836519956067608
mp-1182886,AlO3,"[Element Al, Element O]",2,Al8 O24,0.0,-1.4760469203125,2.211478836020017
mp-1182387,AsO2,"[Element As, Element O]",2,As12 O24,0.07599999999999901,-1.426050649999999,3.7108837318661703
mp-1189507,CsO3,"[Element Cs, Element O]",2,Cs4 O12,0.9415,-0.648974818663793,3.4023728855564332
mp-1182915,AlO3,"[Element Al, Element O]",2,Al8 O24,0.0,-1.2797466865625,2.117791397803881
mp-1191778,Al9Fe2,"[Element Al, Element Fe]",2,Al18 Fe4,0.0,-0.23460630045454403,3.533546156445344
mp-1199270,Eu2Sb3,"[Element Eu, Element Sb]",2,Eu16 Sb24,0.0,-0.9381358875000011,7.16327671597841
mp-1191262,Ga9Ir2,"[Element Ga, Element Ir]",2,Ga18 Ir4,0.0,-0.32211264909090803,9.295312335945647
mp-1199938,P2S7,"[Element P, Element S]",2,P8 S28,2.1425,-0.17409920507109602,1.997026671381243
mp-1198148,BaO10,"[Element Ba, Element O]",2,Ba4 O40,0.0,-0.41918002181818204,2.542037606887575
mp-1196387,W3I8,"[Element I, Element W]",2,W24 I64,1.064,-0.393111996022726,5.601305677879843
mp-1195383,As2O3,"[Element As, Element O]",2,As48 O72,3.3787000000000003,-1.6185537271666681,3.630712253324062
mp-1196514,KS3,"[Element K, Element S]",2,K8 S24,1.8888999999999991,-0.618411601796874,1.990182734819924
mp-1194715,As2O3,"[Element As, Element O]",2,As16 O24,3.620599999999999,-1.624187398250001,3.93882106601367
mp-1197907,W2Br5,"[Element Br, Element W]",2,W16 Br40,0.8696,-0.8542106803571421,5.282366038136626
mp-1197923,C61O2,"[Element C, Element O]",2,C122 O4,1.2642,0.28489274563492,1.7294803255737472
mp-1195,Ba3P14,"[Element Ba, Element P]",2,Ba6 P28,1.8930999999999991,-0.50608046735294,3.162453986024103
mp-1194773,SiS2,"[Element S, Element Si]",2,Si12 S24,2.8836999999999993,-0.7053710740972221,2.189747500552802
mp-1195560,C3F5,"[Element C, Element F]",2,C24 F40,4.573,-1.2545161207031241,2.2032947120168362
mp-1195922,EuP7,"[Element Eu, Element P]",2,Eu4 P28,0.37600000000000006,-0.41725717229166404,3.654760820538164
mp-1198386,Al2Mo3,"[Element Al, Element Mo]",2,Al16 Mo24,0.0,0.040766610678571,7.091840142062068
mp-1192688,ZnN6,"[Element N, Element Zn]",2,Zn4 N24,3.3876,0.36770688071428503,2.559069288987283
mp-1197128,Bi2O3,"[Element Bi, Element O]",2,Bi16 O24,2.4549,-1.626078676000003,9.370751974467453
mp-1198133,Y5Si4,"[Element Si, Element Y]",2,Y20 Si16,0.0,-0.8372678411111121,4.373702087072076
mp-1196867,LaN3,"[Element La, Element N]",2,La8 N24,0.47730000000000006,-0.6770377271874991,4.00210784711602
mp-1200183,BS2,"[Element B, Element S]",2,B12 S24,0.0,-0.304932651944443,1.588436919271937
mp-1200885,Y4C7,"[Element C, Element Y]",2,Y16 C28,0.585,-0.262735675681818,4.59325983915959
mp-1200550,P4N7,"[Element N, Element P]",2,P16 N28,0.0,-0.35256639176407,2.7097392132664293
mp-12003,Al9Ir2,"[Element Al, Element Ir]",2,Al18 Ir4,0.0,-0.5658966736363621,5.88732666412573
mp-1200292,SiO2,"[Element O, Element Si]",2,Si96 O192,5.700699999999999,-3.256908397881944,1.698299400621277
mp-1201338,V6O13,"[Element O, Element V]",2,V12 O26,0.17729999999999901,-2.392229199473685,3.705155785080282
mp-1200254,U3O10,"[Element O, Element U]",2,U12 O40,0.0785,-3.053169032884613,6.473226200129543
mp-1204579,NO3,"[Element N, Element O]",2,N16 O48,1.446699999999999,-0.56358408953125,1.8270775793722822
mp-1201738,SiO2,"[Element O, Element Si]",2,Si32 O64,5.5295,-3.22127844125,2.804576619997105
mp-1204051,Na2O9,"[Element Na, Element O]",2,Na8 O36,0.0,-0.48183929434169204,1.774705272030249
mp-1201981,NaO8,"[Element Na, Element O]",2,Na4 O32,0.055400000000000005,-0.118000116819923,1.614573889705634
mp-1203591,TcI4,"[Element I, Element Tc]",2,Tc8 I32,0.0,-0.295391453,4.778420054176908
mp-1203337,C3S4,"[Element C, Element S]",2,C24 S32,1.4507,0.262706803494899,1.825519858068124
mp-1205345,Sb2O3,"[Element O, Element Sb]",2,Sb8 O12,2.5073,-1.7333436614999962,5.470544023966135
mp-1205372,VCl4,"[Element Cl, Element V]",2,V4 Cl16,0.0,-1.2980599385,2.091642944117838
mp-1204039,CsSb,"[Element Cs, Element Sb]",2,Cs16 Sb16,0.5215999999999991,-0.5947206056249991,4.425924367147673
mp-1201560,P7Pb,"[Element P, Element Pb]",2,P28 Pb4,0.8769999999999991,-0.030557382916665002,3.922471237224316
mp-1201299,P2O9,"[Element O, Element P]",2,P8 O36,0.22259999999999902,-1.014667462435065,1.624824670542923
mp-1205121,CsBi,"[Element Bi, Element Cs]",2,Cs16 Bi16,0.24520000000000003,-0.510760389375001,5.5769541143173935
mp-1207529,ZrPb,"[Element Pb, Element Zr]",2,Zr4 Pb4,0.0,-0.19963477000000202,9.41221911349801
mp-1214192,C2S3,"[Element C, Element S]",2,C16 S24,1.7265000000000001,0.24385409660714402,1.776722584582068
mp-1214294,C7Cl8,"[Element C, Element Cl]",2,C28 Cl32,3.0458,0.008878970333334001,1.937211969159178
mp-1208546,Ta24Al19,"[Element Al, Element Ta]",2,Ta48 Al38,0.0,-0.31516260657209805,11.485182477997684
mp-1209849,NdP2,"[Element Nd, Element P]",2,Nd4 P8,0.0,-1.189920122817459,5.264021100109067
mp-1237467,CeSe2,"[Element Ce, Element Se]",2,Ce16 Se32,0.067499999999999,-1.787381973645832,5.188244058215329
mp-1212012,K10Tl7,"[Element K, Element Tl]",2,K40 Tl28,0.0,-0.087606712107845,3.784372672528214
mp-1214172,CF,"[Element C, Element F]",2,C32 F32,3.208599999999999,-0.802039505468749,1.954114965229593
mp-1214152,C2S3,"[Element C, Element S]",2,C8 S12,1.880799999999999,0.274819690607144,1.798210208865676
mp-1268079,SiO2,"[Element O, Element Si]",2,Si64 O128,5.6869,-3.252307825364583,1.605809573708311
mp-1213825,ClO5,"[Element Cl, Element O]",2,Cl4 O20,0.5363,0.163916399166666,2.049581396187075
mp-1214237,CI2,"[Element C, Element I]",2,C8 I16,2.575,0.290198935,3.546477879366425
mp-1224693,KU3,"[Element K, Element U]",2,K4 U12,0.0,0.8779695861249971,8.400114032125975
mp-1232221,PmSe2,"[Element Pm, Element Se]",2,Pm4 Se8,0.0,-1.8832167260416661,6.806442299068467
mp-1207978,Tm4C7,"[Element C, Element Tm]",2,Tm8 C14,0.3698,-0.49857727909090904,8.411408759236647
mp-1214217,CCl2,"[Element C, Element Cl]",2,C12 Cl24,3.9193000000000002,0.014631220416666,1.870368079857205
mp-1212833,Er4C7,"[Element C, Element Er]",2,Er8 C14,0.39120000000000005,-0.299415060454546,8.19558057868982
mp-1232280,SmS2,"[Element S, Element Sm]",2,Sm4 S8,0.5285000000000001,-2.071065281666665,5.560899807498905
mp-1214421,C8Cl5,"[Element C, Element Cl]",2,C64 Cl40,2.0397,0.051231919086537,1.887215898796685
mp-1214283,C5Cl4,"[Element C, Element Cl]",2,C40 Cl32,2.2709,0.028772069722222002,1.883197180805504
mp-1232276,PmS2,"[Element Pm, Element S]",2,Pm4 S8,0.4328,-2.021422001041666,5.347245248035942
mp-1229,CuF2,"[Element Cu, Element F]",2,Cu2 F4,0.0,-1.8150299499999991,4.952617617703766
mp-1232155,EuS2,"[Element Eu, Element S]",2,Eu4 S8,0.0,-1.623697453541666,5.344950858188513
mp-1214789,BSe2,"[Element B, Element Se]",2,B8 Se16,1.771199999999999,-0.194957051874998,3.604784958080036
mp-1250007,SiSe2,"[Element Se, Element Si]",2,Si8 Se16,2.4771,-0.5185735381249991,3.575903401765799
mp-1247,Sb2Ir,"[Element Ir, Element Sb]",2,Sb8 Ir4,0.5099,-0.45282265916666603,10.772800250207554
mp-1544359,BiPd,"[Element Bi, Element Pd]",2,Bi8 Pd8,0.0,-0.259240715624997,12.206131567858261
mp-13568,NdS2,"[Element Nd, Element S]",2,Nd4 S8,0.33790000000000003,-2.015935722708332,5.206421297124649
mp-1443,Sn3F8,"[Element F, Element Sn]",2,Sn6 F16,3.1684,-2.537928646818182,4.9635349557834445
mp-1379489,MoF5,"[Element F, Element Mo]",2,Mo4 F20,1.9260000000000002,-2.5731090174999993,3.5990029032141413
mp-13961,NdAs2,"[Element As, Element Nd]",2,Nd4 As8,0.039400000000000004,-1.1671387575,6.743162395725033
mp-1339908,TaF5,"[Element F, Element Ta]",2,Ta4 F20,5.1237,-3.329028205388887,4.4210968458146045
mp-13567,CeS2,"[Element Ce, Element S]",2,Ce4 S8,0.0,-2.048513941041667,5.024430969624729
mp-1320,CeSe2,"[Element Ce, Element Se]",2,Ce4 Se8,0.0,-1.906366999062498,6.7013938696665125
mp-1359089,Sb2S5,"[Element S, Element Sb]",2,Sb8 S20,0.0,-0.125051684955358,2.860571171219053
mp-1392,ZnP2,"[Element P, Element Zn]",2,Zn8 P16,0.7480000000000001,-0.31427648031745903,3.60038412690059
mp-15177,Ho4C7,"[Element C, Element Ho]",2,Ho8 C14,0.0,-0.281795322954541,7.951222556982849
mp-15649,As2Ir,"[Element As, Element Ir]",2,As8 Ir4,0.8155000000000001,-0.571072849166668,10.710256626582213
mp-1536,KSb,"[Element K, Element Sb]",2,K8 Sb8,0.8246000000000001,-0.571137408125,3.457066707542885
mp-1341935,SbF5,"[Element F, Element Sb]",2,Sb4 F20,3.6765,-2.57333251625,3.995159575814314
mp-1367785,WF5,"[Element F, Element W]",2,W4 F20,2.9429,-2.717414811666666,5.198324563447736
mp-1369219,BiF5,"[Element Bi, Element F]",2,Bi4 F20,1.8671000000000002,-1.856484237083333,5.186929253684136
mp-1374127,CrF5,"[Element Cr, Element F]",2,Cr4 F20,1.166799999999999,-2.263764865,2.6914456572728183
mp-15178,Lu4C7,"[Element C, Element Lu]",2,Lu8 C14,0.0,-0.322772431515154,8.946030269233868
mp-14285,CoP2,"[Element Co, Element P]",2,Co4 P8,0.437799999999999,-0.506288872817461,5.185653188975327
mp-1350597,BeF2,"[Element Be, Element F]",2,Be16 F32,6.7317,-3.436305923333333,2.255758238514925
mp-1524394,WO2,"[Element O, Element W]",2,W4 O8,0.0,-2.067517555833333,10.684552229802115
mp-1545216,NaO2,"[Element Na, Element O]",2,Na4 O8,0.48360000000000003,-0.9077286621264361,2.33505871671538
mp-15953,P2Rh,"[Element P, Element Rh]",2,P8 Rh4,0.37049999999999905,-0.7267235144841251,6.04928689916941
mp-16897,Sr2Sb3,"[Element Sb, Element Sr]",2,Sr16 Sb24,0.155899999999999,-0.9137296557499991,5.298737190736542
mp-1853,Sr3P14,"[Element P, Element Sr]",2,Sr6 P28,1.8291,-0.543164580686272,2.858431150710388
mp-1806,RbO3,"[Element O, Element Rb]",2,Rb4 O12,0.8986000000000001,-0.64643538,2.880356457910235
mp-16488,Al9Co2,"[Element Al, Element Co]",2,Al18 Co4,0.0,-0.29702967454545304,3.718700101264906
mp-1592,Ag2Te,"[Element Ag, Element Te]",2,Ag8 Te4,0.0,-0.09518987166666601,8.246593148191318
mp-15954,As2Rh,"[Element As, Element Rh]",2,As8 Rh4,0.2625,-0.5725928316666651,8.009504852964664
mp-1581,As2O3,"[Element As, Element O]",2,As8 O12,3.6306000000000003,-1.6246828995,3.904404431828516
mp-1582,As2O3,"[Element As, Element O]",2,As8 O12,4.0339,-1.626348611000001,4.117486464369091
mp-1605,Ag3O4,"[Element Ag, Element O]",2,Ag6 O8,0.0,-0.40144617142857003,7.049422627340591
mp-17407,Au3F8,"[Element Au, Element F]",2,Au6 F16,0.5426,-1.089517318181818,7.711975752505495
mp-18856,MoO3,"[Element Mo, Element O]",2,Mo8 O24,1.3714,-1.9245719515625002,4.482983052723713
mp-19033,WO3,"[Element O, Element W]",2,W4 O12,1.4239,-2.1836139025,7.2471688904592995
mp-1618,PPd6,"[Element P, Element Pd]",2,P4 Pd24,0.0,-0.313427104948978,10.540980316328554
mp-1645,Al9Rh2,"[Element Al, Element Rh]",2,Al18 Rh4,0.0,-0.524021496818181,4.25679856326388
mp-16922,Ba2Sb3,"[Element Ba, Element Sb]",2,Ba16 Sb24,0.32480000000000003,-0.962356391249998,5.499076645824872
mp-1771,NO2,"[Element N, Element O]",2,N4 O8,2.7046,-0.684150346111111,1.9882387928787892
mp-1945,NdCu6,"[Element Cu, Element Nd]",2,Nd4 Cu24,0.0,-0.12805910464285802,8.619506327412518
mp-2041039,VF5,"[Element F, Element V]",2,V4 F20,3.425899999999999,-2.834940268333333,3.094098663359609
mp-200,LaP7,"[Element La, Element P]",2,La4 P28,0.861699999999999,-0.514802012604166,3.586841669646944
mp-2236,UIr,"[Element Ir, Element U]",2,U8 Ir8,0.0,-0.496806767499997,17.383843970285813
mp-2084,Si5Ir3,"[Element Ir, Element Si]",2,Si40 Ir24,0.9437999999999991,-0.6734596323437501,10.040153886743232
mp-2018369,Ag2S,"[Element Ag, Element S]",2,Ag8 S4,1.5694,-0.11816704427083301,6.702851253011478
mp-2029636,BiI3,"[Element Bi, Element I]",2,Bi4 I12,2.808099999999999,-0.764680391875004,5.240356552657865
mp-2030706,VF4,"[Element F, Element V]",2,V4 F16,1.5313999999999992,-2.9842722084999993,3.178673155342788
mp-23217,Bi2Rh,"[Element Bi, Element Rh]",2,Bi8 Rh4,0.0,-0.2228227425,11.623344145634617
mp-20078,Pb2O3,"[Element O, Element Pb]",2,Pb8 O12,1.074899999999999,-1.393345208999998,9.837550822423589
mp-2287,SiRh,"[Element Rh, Element Si]",2,Si4 Rh4,0.0,-0.816307763749999,8.214441029072972
mp-23216,SnBr4,"[Element Br, Element Sn]",2,Sn4 Br16,2.7107,-1.117422941499999,3.67899472345487
mp-2023073,BiF5,"[Element Bi, Element F]",2,Bi4 F20,2.438799999999999,-1.856477084166667,5.189451225926016
mp-23170,IO2,"[Element I, Element O]",2,I8 O16,1.4625,-0.696473726249999,5.374756272178859
mp-23185,XeF4,"[Element F, Element Xe]",2,Xe2 F8,2.8624,-0.857616325999999,4.206398571989196
mp-23261,I2O5,"[Element I, Element O]",2,I8 O20,2.7278000000000002,-0.7564620653571411,5.159777653138838
mp-2035237,PbCl2,"[Element Cl, Element Pb]",2,Pb8 Cl16,2.9382,-1.295052018333332,5.6554062361709025
mp-22652,FeS,"[Element Fe, Element S]",2,Fe12 S12,0.0349,-0.591536155416665,5.9924168081012334
mp-2220540,Cr3O8,"[Element Cr, Element O]",2,Cr6 O16,0.5890000000000001,-1.652323716363635,2.882546985021912
mp-236,SN,"[Element N, Element S]",2,S4 N4,2.9469000000000003,0.5086555859375,1.8705937605216532
mp-235,SN,"[Element N, Element S]",2,S4 N4,0.0,0.36311170593750003,1.8181605711553042
mp-2506972,VO2,"[Element O, Element V]",2,V4 O8,0.7661000000000001,-2.420351570000001,3.961012436421171
mp-23305,EuI2,"[Element Eu, Element I]",2,Eu4 I8,1.4092,-1.866459918333333,5.387420139831969
mp-27213,AuBr3,"[Element Au, Element Br]",2,Au8 Br24,0.8891,-0.556991212499999,5.620605892767032
mp-23288,AlBr3,"[Element Al, Element Br]",2,Al4 Br12,4.0992,-1.518050286874999,3.141176611644674
mp-27164,FeP4,"[Element Fe, Element P]",2,Fe6 P24,1.075,-0.364380441714284,4.170169112889482
mp-23262,Bi2O3,"[Element Bi, Element O]",2,Bi8 O12,2.194499999999999,-1.641727215000003,9.438175801265304
mp-2650,P4S7,"[Element P, Element S]",2,P16 S28,2.7617000000000003,-0.221087734690204,2.033362539496993
mp-27342,Ge5F12,"[Element F, Element Ge]",2,Ge10 F24,4.3594,-2.287584770882353,3.962229076448399
mp-23739,SiH4,"[Element H, Element Si]",2,Si4 H16,6.562100000000001,-0.008217420500000001,0.776391457407485
mp-27358,Se2O5,"[Element O, Element Se]",2,Se8 O20,2.9034,-1.022062649955356,3.606510002362265
mp-2715,CoAs2,"[Element As, Element Co]",2,Co4 As8,0.172299999999999,-0.290117705833334,7.546049905466102
mp-2682,Sb2Rh,"[Element Rh, Element Sb]",2,Sb8 Rh4,0.0,-0.508644458333331,8.659971457025462
mp-27200,B13H19,"[Element B, Element H]",2,B52 H76,2.8072,-0.066269877954546,0.8475502746725431
mp-2753,Tl4S3,"[Element S, Element Tl]",2,Tl16 S12,0.8601000000000001,-0.49433550083333205,7.46641486949202
mp-27647,AuCl3,"[Element Au, Element Cl]",2,Au4 Cl12,1.3606,-0.323221143125,4.518647830236056
mp-27697,ThI4,"[Element I, Element Th]",2,Th4 I16,1.8452000000000002,-1.5396167125,5.62197228604971
mp-27634,TiBr4,"[Element Br, Element Ti]",2,Ti4 Br16,2.7825,-1.658445301916668,3.253926432619916
mp-27864,BF2,"[Element B, Element F]",2,B4 F8,4.8986,-2.481294308796297,1.8076853592567712
mp-27645,ReCl5,"[Element Cl, Element Re]",2,Re8 Cl40,0.0,-0.5948696469212931,3.374321778240761
mp-2831849,RhN2,"[Element N, Element Rh]",2,Rh4 N8,0.0,0.11656369999999501,7.636600257688612
mp-27642,PaBr5,"[Element Br, Element Pa]",2,Pa4 Br20,1.9646000000000001,-1.884624831249997,4.542506494797352
mp-27747,PdI2,"[Element I, Element Pd]",2,Pd4 I8,0.9294000000000001,-0.503004289999998,5.835912631333681
mp-28319,PtI2,"[Element I, Element Pt]",2,Pt4 I8,1.2328000000000001,-0.41580178833333703,7.190972117054134
mp-2751956,WF4,"[Element F, Element W]",2,W2 F8,0.7174,-2.404777133000002,6.5393048932822495
mp-27628,Te3Cl2,"[Element Cl, Element Te]",2,Te12 Cl8,1.3552,-0.33295714550000005,4.614888003138834
mp-27798,B4H5,"[Element B, Element H]",2,B64 H80,2.9117,-0.08526796329861101,0.882148574064863
mp-28338,Mn2O7,"[Element Mn, Element O]",2,Mn16 O56,1.8242,-0.8804072191235621,2.364325579290007
mp-27990,B2H5,"[Element B, Element H]",2,B16 H40,6.3315,-0.058270763035714004,0.7199509282330201
mp-28223,LaSe2,"[Element La, Element Se]",2,La4 Se8,1.317999999999999,-1.892552152708328,5.698699723167822
mp-28294,Sb11F43,"[Element F, Element Sb]",2,Sb22 F86,3.623199999999999,-2.661460519722222,4.026649529690894
mp-28391,SiCl4,"[Element Cl, Element Si]",2,Si4 Cl16,5.5658,-1.351781889000001,1.8594604540846191
mp-28860,P2Se5,"[Element P, Element Se]",2,P8 Se20,1.356199999999999,-0.031328878394983,3.720943185169942
mp-29179,SnCl2,"[Element Cl, Element Sn]",2,Sn8 Cl16,3.1002,-1.055039141666666,3.783777170456363
mp-28366,Gd2B5,"[Element B, Element Gd]",2,Gd8 B20,0.0,-0.613702832142856,6.827924932929226
mp-29767,Pt5Se4,"[Element Pt, Element Se]",2,Pt10 Se8,0.0,-0.383304857916666,12.669299560980619
mp-28885,PSe,"[Element P, Element Se]",2,P16 Se16,2.2667,-0.090475402269344,3.169265900767657
mp-29657,NaGe,"[Element Ge, Element Na]",2,Na16 Ge16,0.665199999999999,-0.21452557437499903,3.188143796839254
mp-28933,Br2O3,"[Element Br, Element O]",2,Br16 O24,1.7587000000000002,-0.198695136500001,3.609499311286582
mp-29014,P2S3,"[Element P, Element S]",2,P16 S24,2.5064,-0.19798102637797502,2.040115172646735
mp-29502,Al2Te3,"[Element Al, Element Te]",2,Al16 Te24,1.854,-0.559024813749999,4.155653863056867
mp-2913080,BiBr3,"[Element Bi, Element Br]",2,Bi4 Br12,2.8826,-1.172513377500001,4.309906649201264
mp-29147,MoCl5,"[Element Cl, Element Mo]",2,Mo8 Cl40,0.0,-0.916416496666666,2.863634183640187
mp-29281,Th2P11,"[Element P, Element Th]",2,P132 Th24,0.323399999999999,-0.5530780880036651,5.287843681458656
mp-2858,ZrO2,"[Element O, Element Zr]",2,Zr4 O8,3.5322,-3.813617754999999,5.777331384412114
mp-29866,SnCl4,"[Element Cl, Element Sn]",2,Sn4 Cl16,3.565,-1.025306462999999,2.601814489829774
mp-29369,Sb7F29,"[Element F, Element Sb]",2,Sb28 F116,3.7106,-2.644929547430555,3.8966507127328462
mp-29504,ClF,"[Element Cl, Element F]",2,Cl4 F4,2.0897,-0.340964216249999,2.430961145713511
mp-30590,LaCu6,"[Element Cu, Element La]",2,La4 Cu24,0.0,-0.114437729999999,8.305353650452878
mp-30544,Mo5O14,"[Element Mo, Element O]",2,Mo20 O56,0.0,-1.935370803289473,3.88602642746257
mp-30967,Tb12Co7,"[Element Co, Element Tb]",2,Tb24 Co14,0.0,-0.14882054236842002,9.079163902835027
mp-31000,NO,"[Element N, Element O]",2,N4 O4,0.0,0.030970919999999003,1.469867769264521
mp-30930,AlI3,"[Element Al, Element I]",2,Al4 I12,3.2639,-0.9552141906250001,3.7331499892699993
mp-30092,TiCl4,"[Element Cl, Element Ti]",2,Ti4 Cl16,3.4576000000000002,-1.725360933333334,2.000567383851006
mp-30233,Na3As7,"[Element As, Element Na]",2,Na24 As56,1.5304,-0.357265993125,3.601140324989667
mp-30970,Er12Co7,"[Element Co, Element Er]",2,Er24 Co14,0.0,-0.202081798421051,9.871430543346975
mp-31104,KBi,"[Element Bi, Element K]",2,K16 Bi16,0.4308,-0.47592113031250705,5.003121956310277
mp-29907,Te4Pd9,"[Element Pd, Element Te]",2,Te16 Pd36,0.0,-0.314602365192307,10.269497749903021
mp-30086,GeCl4,"[Element Cl, Element Ge]",2,Ge4 Cl16,4.1525,-1.004032483,2.265639122119878
mp-30953,GaBr3,"[Element Br, Element Ga]",2,Ga4 Br12,3.3559,-1.237540705624999,3.718367562186263
mp-31105,RbBi,"[Element Bi, Element Rb]",2,Rb16 Bi16,0.38619999999999904,-0.34144030156249905,5.339830253725067
mp-30529,B5H11,"[Element B, Element H]",2,B20 H44,4.7917000000000005,-0.049254262826703005,0.658533355001643
mp-30954,GaI3,"[Element Ga, Element I]",2,Ga4 I12,2.3721,-0.7841287225000011,4.1931707844143045
mp-31487,NbI5,"[Element I, Element Nb]",2,Nb4 I20,0.6072000000000001,-0.7311326595833311,4.850899025884438
mp-32667,SiO2,"[Element O, Element Si]",2,Si6 O12,5.3845,-3.025952776666666,4.195638145622622
mp-30969,Ho12Co7,"[Element Co, Element Ho]",2,Ho24 Co14,0.0,-0.17543571815789102,9.63025955081353
mp-352,HfO2,"[Element Hf, Element O]",2,Hf4 O8,4.0165,-4.019811040833332,10.24124328616322
mp-504825,SeCl,"[Element Cl, Element Se]",2,Se8 Cl8,2.1951,-0.19945989265625003,2.983023567574934
mp-384,MgP4,"[Element Mg, Element P]",2,Mg2 P8,0.7289000000000001,-0.298333085714285,2.501306360680703