material_id,formula_pretty,elements,nelements,composition,band_gap,formation_energy_per_atom,density
mp-1225677,CuAu,"[Element Au, Element Cu]",2,Cu1 Au1,0.0,0.024034950000000003,14.089682332451204
mp-1226221,CrAu,"[Element Au, Element Cr]",2,Cr1 Au1,0.0,0.42751692625000004,12.486964826608203
mp-1225998,CoPt,"[Element Co, Element Pt]",2,Co1 Pt1,0.0,-0.014444050000001001,15.711172721413536
mp-1225704,CuRh,"[Element Cu, Element Rh]",2,Cu1 Rh1,0.0,0.06490085000000001,10.731775302092817
mp-1226089,CoPt3,"[Element Co, Element Pt]",2,Co1 Pt3,0.0,-0.022682824999999,18.03873667248255
mp-1225687,CuNi,"[Element Cu, Element Ni]",2,Cu1 Ni1,0.0,0.041428610000000005,9.375206695303214
mp-1226024,Co4Ru,"[Element Co, Element Ru]",2,Co4 Ru1,0.0,0.133466523999999,9.528075721957192
mp-1226026,CoRh,"[Element Co, Element Rh]",2,Co1 Rh1,0.0,0.082390137499999,10.321734317534508
mp-1226164,CrPt,"[Element Cr, Element Pt]",2,Cr1 Pt1,0.0,-0.059656083333337,14.856271843176797
mp-1226207,CrPt4,"[Element Cr, Element Pt]",2,Cr1 Pt4,0.0,-0.177575991199995,18.385272160372644
mp-1226295,CrIn3,"[Element Cr, Element In]",2,Cr1 In3,0.0,0.38584904750000204,7.638457043170826
mp-1226232,CrNi,"[Element Cr, Element Ni]",2,Cr1 Ni1,0.0,0.16564734750000001,8.259656373848346
mp-1226001,CoPd,"[Element Co, Element Pd]",2,Co1 Pd1,0.0,0.096960192499999,10.189907488813713
mp-1225761,Cu4Au,"[Element Au, Element Cu]",2,Cu4 Au1,0.0,0.06479794400000001,11.223110407539595
mp-1225448,ErTh,"[Element Er, Element Th]",2,Er1 Th1,0.0,0.037090858333343,10.641902695277285
mp-1226077,CoAu4,"[Element Au, Element Co]",2,Co1 Au4,0.0,0.151584931000002,16.48613714694845
mp-1225722,Cu5Ge2,"[Element Cu, Element Ge]",2,Cu5 Ge2,0.0,0.07095628690476201,7.802930611398984
mp-1226166,CrPd,"[Element Cr, Element Pd]",2,Cr1 Pd1,0.0,0.228803366666667,9.662156011264067
mp-1226027,CoIr,"[Element Co, Element Ir]",2,Co1 Ir1,0.0,0.042557062500002005,16.48486572963533
mp-1225742,CuAu4,"[Element Au, Element Cu]",2,Cu1 Au4,0.0,0.012961134000000001,16.608849537244435
mp-1226010,Co4Ge,"[Element Co, Element Ge]",2,Co4 Ge1,0.0,0.19767345599999803,8.700527657672522
mp-1226016,Co4Os,"[Element Co, Element Os]",2,Co4 Os1,0.0,0.14655701799999502,11.889547769415376
mp-1227257,CaC2,"[Element C, Element Ca]",2,Ca1 C2,2.7708999999999993,-0.082445955,2.055508156250154
mp-1226450,Co3Pt,"[Element Co, Element Pt]",2,Co3 Pt1,0.0,0.06421203,12.406724453732886
mp-1228120,Al4Si,"[Element Al, Element Si]",2,Al4 Si1,0.0,0.11491430399999901,2.835248518988961
mp-1227959,BaCa3,"[Element Ba, Element Ca]",2,Ba1 Ca3,0.0,0.0385465025,2.3297998969975833
mp-1226765,Ce4Sm,"[Element Ce, Element Sm]",2,Ce4 Sm1,0.0,0.06911200099999601,8.532078391065118
mp-1226738,CdPd3,"[Element Cd, Element Pd]",2,Cd1 Pd3,0.0,-0.130333354999998,10.807788481874084
mp-1228933,AlCo4,"[Element Al, Element Co]",2,Al1 Co4,0.0,-0.007462145000000001,7.594940255047482
mp-1227015,CePu4,"[Element Ce, Element Pu]",2,Ce1 Pu4,0.0,0.7063260630000171,14.937266894759448
mp-1226316,CrIr3,"[Element Cr, Element Ir]",2,Cr1 Ir3,0.0,-0.12186337000000601,18.692105889313893
mp-1229032,AgPt4,"[Element Ag, Element Pt]",2,Ag1 Pt4,0.0,-0.024214919000002003,18.889324557971843
mp-1237667,Na2O2,"[Element Na, Element O]",2,Na1 O1,0.0,-1.043235423189655,2.575842739578467
mp-1238792,OF,"[Element F, Element O]",2,O2 F2,0.6031999999999991,0.540906977499999,2.05400100016712
mp-1238872,CuCl2,"[Element Cl, Element Cu]",2,Cu1 Cl2,0.0,-0.5833798249999991,3.13001518017025
mp-1227339,BiTe,"[Element Bi, Element Te]",2,Bi1 Te1,0.0,-0.11337325083332601,8.286317371855423
mp-1226395,CoMo,"[Element Co, Element Mo]",2,Co13 Mo13,0.0,0.009386806602564001,9.867544293147681
mp-1228947,AlAg4,"[Element Ag, Element Al]",2,Al1 Ag4,0.0,0.015597754066666001,8.671245147627953
mp-1226726,CdAg,"[Element Ag, Element Cd]",2,Cd1 Ag1,0.0,-0.033355972499997,9.672462109968574
mp-1226850,Ce3Sn,"[Element Ce, Element Sn]",2,Ce3 Sn1,0.0,-0.129268838749997,7.957721608807474
mp-1227459,BiPb4,"[Element Bi, Element Pb]",2,Bi1 Pb4,0.0,0.032338750000008,10.791002976597666
mp-1229092,AgAu,"[Element Ag, Element Au]",2,Ag1 Au1,0.0,-0.062225997500000005,14.53896486670291
mp-1227650,BaSr4,"[Element Ba, Element Sr]",2,Ba1 Sr4,0.0,-0.003694495999999,2.86711139928882
mp-1232560,CrN,"[Element Cr, Element N]",2,Cr2 N2,0.0,-0.708122064374999,6.129712959334631
mp-1226338,CrNi3,"[Element Cr, Element Ni]",2,Cr1 Ni3,0.0,0.068634129999999,8.539998005160493
mp-1226523,CeTh,"[Element Ce, Element Th]",2,Ce1 Th1,0.0,0.020711455000004,10.48732098519532
mp-1226736,CdAg3,"[Element Ag, Element Cd]",2,Cd1 Ag3,0.0,-0.007482706249998,9.996305857896676
mp-1226746,CdPt3,"[Element Cd, Element Pt]",2,Cd1 Pt3,0.0,-0.042355729999998,17.477700294128255
mp-1226997,Ce4Pu,"[Element Ce, Element Pu]",2,Ce4 Pu1,0.0,0.11609197999999801,11.3087689894863
mp-12283,Li5Tl2,"[Element Li, Element Tl]",2,Li5 Tl2,0.0,-0.281346916190476,5.726650520375403
mp-1226492,CePu,"[Element Ce, Element Pu]",2,Ce1 Pu1,0.0,0.836004372499999,12.84864055214995
mp-1229012,AgPd,"[Element Ag, Element Pd]",2,Ag1 Pd1,0.0,-0.07259402249999801,11.118166798836851
mp-1226864,Ce3Sc,"[Element Ce, Element Sc]",2,Ce3 Sc1,0.0,0.023797387500000003,7.032110182737549
mp-1229015,AgPt,"[Element Ag, Element Pt]",2,Ag1 Pt1,0.0,-0.0792769675,15.662035058541445
mp-1245,Sr2N,"[Element N, Element Sr]",2,Sr2 N1,0.0,-0.671966406250002,3.514683001034272
mp-12648,Ti2Be17,"[Element Be, Element Ti]",2,Ti2 Be17,0.0,-0.198588641666666,2.473730786983482
mp-1334,Y2C,"[Element C, Element Y]",2,Y2 C1,0.0,-0.262626155000001,4.539960964582365
mp-1272141,MnO2,"[Element Mn, Element O]",2,Mn1 O2,1.9395,-1.750180578477013,2.952306442207067
mp-1271793,Co3O4,"[Element Co, Element O]",2,Co6 O8,0.0,-1.290338224285714,5.524739582189392
mp-1393120,FeS2,"[Element Fe, Element S]",2,Fe4 S8,0.0,-0.5968370916666651,3.936361448436063
mp-1419175,SbO2,"[Element O, Element Sb]",2,Sb1 O2,0.0,-1.450723496666666,5.459814601789836
mp-1413688,CrS2,"[Element Cr, Element S]",2,Cr1 S2,0.0,-0.816091151666665,3.082703653462657
mp-12574,Dy2C,"[Element C, Element Dy]",2,Dy2 C1,0.0,-0.44103585666666806,8.189311592671027
mp-1420871,VO2,"[Element O, Element V]",2,V1 O2,0.0,-2.214874286666668,2.563009623267051
mp-12826,Sb8Te3,"[Element Sb, Element Te]",2,Sb8 Te3,0.0,-0.18058348636363503,6.290467046902225
mp-1390618,SnO2,"[Element O, Element Sn]",2,Sn1 O2,1.9299,-1.9542055316666662,5.754825882445788
mp-1422029,MnS2,"[Element Mn, Element S]",2,Mn1 S2,0.0,-0.7995039067025851,3.093657821836562
mp-12531,Sn4As3,"[Element As, Element Sn]",2,Sn4 As3,0.0,-0.050459851071427,6.518198188528928
mp-1421109,CrO2,"[Element Cr, Element O]",2,Cr1 O2,0.0,-1.823380746666667,2.648999237837417
mp-1387852,CoS2,"[Element Co, Element S]",2,Co1 S2,0.0,-0.336298066874999,3.225853655074376
mp-1424931,VS2,"[Element S, Element V]",2,V1 S2,0.0,-1.182897465,2.901008473324276
mp-1272749,CoO2,"[Element Co, Element O]",2,Co2 O4,0.0,-0.9527355033333351,3.286864181886336
mp-13862,B13P2,"[Element B, Element P]",2,B13 P2,0.0,0.653572230325396,2.085089984526969
mp-1426,Sm2Fe17,"[Element Fe, Element Sm]",2,Sm2 Fe17,0.0,0.022861302631578,7.944720462676919
mp-1346,B6O,"[Element B, Element O]",2,B12 O2,1.856399999999999,-0.8052726050000011,2.621773527017992
mp-1411545,NiS2,"[Element Ni, Element S]",2,Ni1 S2,0.527899999999999,-0.556547261666666,3.490224345835394
mp-20050,InP3,"[Element In, Element P]",2,In2 P6,0.0,-0.12389688473214201,4.223039191074772
mp-1540935,GeI2,"[Element Ge, Element I]",2,Ge3 I6,2.0087,-0.594223698333331,4.789724657301655
mp-1430160,FeS2,"[Element Fe, Element S]",2,Fe1 S2,0.0,-0.642795531666665,3.109980701479322
mp-1510,Nd2Fe17,"[Element Fe, Element Nd]",2,Nd2 Fe17,0.0,0.323009587105263,7.750942868271782
mp-1892,Ba2N,"[Element Ba, Element N]",2,Ba2 N1,0.0,-0.524869564999999,4.406145522290381
mp-1473,Fe7W6,"[Element Fe, Element W]",2,Fe7 W6,0.0,-0.016129649999999,14.557540738084068
mp-18063,SrSn3,"[Element Sn, Element Sr]",2,Sr4 Sn12,0.0,-0.38378210312500005,6.165627339280709
mp-1813,Ba2Mg17,"[Element Ba, Element Mg]",2,Ba2 Mg17,0.0,-0.029599811842105004,2.269625348553326
mp-1640,Ho2C,"[Element C, Element Ho]",2,Ho2 C1,0.0,-0.288692674999992,8.481572094117338
mp-16506,Li3Al2,"[Element Al, Element Li]",2,Li3 Al2,0.0,-0.20584683,1.549826149497886
mp-1591,Al4C3,"[Element Al, Element C]",2,Al4 C3,1.3154,-0.23825637285714302,2.991752250158876
mp-1442954,CrS2,"[Element Cr, Element S]",2,Cr4 S8,0.0,-0.839727338333331,3.638624562521816
mp-1426806,TiO2,"[Element O, Element Ti]",2,Ti1 O2,2.6004,-3.349835984444444,2.445862444797379
mp-1431292,FeO2,"[Element Fe, Element O]",2,Fe1 O2,0.0,-1.113341883333333,2.8597409124964823
mp-2042,HoNi3,"[Element Ho, Element Ni]",2,Ho3 Ni9,0.0,-0.421684212083328,10.204731361044102
mp-20132,InHg,"[Element Hg, Element In]",2,In1 Hg1,0.0,-0.010396108750001002,10.209180770479955
mp-17639,Y2Zn17,"[Element Y, Element Zn]",2,Y2 Zn17,0.0,-0.274373596052631,7.282830923147513
mp-16932,Th2Co17,"[Element Co, Element Th]",2,Th2 Co17,0.0,-0.061865569473683005,9.995241989036204
mp-1460,RbGa7,"[Element Ga, Element Rb]",2,Rb2 Ga14,0.0,-0.103526246874999,5.287949853315503
mp-2027032,ZrMn2,"[Element Mn, Element Zr]",2,Zr2 Mn4,0.0,-0.23297815465517102,6.721176671929122
mp-17909,SiO2,"[Element O, Element Si]",2,Si12 O24,5.8413,-3.251443987222224,1.5120982725207321
mp-1802,NbS2,"[Element Nb, Element S]",2,Nb1 S2,0.0,-1.30421061333333,4.127853507996626
mp-1947917,MgIn,"[Element In, Element Mg]",2,Mg1 In1,0.0,-0.044165840833333005,4.969849321228826
mp-23210,MgCl2,"[Element Cl, Element Mg]",2,Mg3 Cl6,5.6168,-2.255449848333333,2.275196080252414
mp-20830,In2Se3,"[Element In, Element Se]",2,In2 Se3,0.0,-0.15629681010416901,6.070792331316427
mp-22327,PuGa3,"[Element Ga, Element Pu]",2,Pu4 Ga12,0.0,-0.476862323437497,9.707139644600929
mp-22883,PbI2,"[Element I, Element Pb]",2,Pb1 I2,2.4224,-0.9208407083333321,5.620100653123823
mp-21293,Li3In2,"[Element In, Element Li]",2,Li3 In2,0.0,-0.388714173999998,4.412505883839329
mp-21446,BaPb3,"[Element Ba, Element Pb]",2,Ba3 Pb9,0.0,-0.372574795,9.105697795832294
mp-23290,PtCl2,"[Element Cl, Element Pt]",2,Pt6 Cl12,1.7917,-0.47506400999999804,5.766771747723599
mp-23240,CoCl2,"[Element Cl, Element Co]",2,Co1 Cl2,0.0843,-0.942769024999999,3.337988324124591
mp-22003,NaN3,"[Element N, Element Na]",2,Na1 N3,4.0268,-0.1652483190625,1.895591313654584
mp-25210,NiO2,"[Element Ni, Element O]",2,Ni1 O2,1.6001,-0.6843117566666661,4.627085559763634
mp-23229,FeCl2,"[Element Cl, Element Fe]",2,Fe1 Cl2,0.035699999999999,-1.125788739999999,3.208438488865729
mp-23306,CuI,"[Element Cu, Element I]",2,Cu2 I2,0.0,-0.08705149250000001,5.480090894657269
mp-2425174,PuRu2,"[Element Pu, Element Ru]",2,Pu2 Ru4,0.0,0.49721187541667006,14.651019735076428
mp-23174,ReCl3,"[Element Cl, Element Re]",2,Re6 Cl18,0.9667999999999991,-0.7714202237499991,4.408788050471345
mp-22881,CdCl2,"[Element Cd, Element Cl]",2,Cd1 Cl2,3.5244,-1.2745155149999992,3.869336071868258
mp-25199,VO2,"[Element O, Element V]",2,V1 O2,0.0,-2.214784080000001,3.666271483348787
mp-2331,B2Mo,"[Element B, Element Mo]",2,B4 Mo2,0.0,-0.44864111666666806,7.127533196551009
mp-22452,PuCo3,"[Element Co, Element Pu]",2,Pu3 Co9,0.0,0.26204750864583004,13.204389276442832
mp-2451,YAl3,"[Element Al, Element Y]",2,Y3 Al9,0.0,-0.46262733500000003,3.6346952134378183
mp-25375,WO2,"[Element O, Element W]",2,W1 O2,1.9916,-1.767434399999999,8.393965923805307
mp-2686,Ca2N,"[Element Ca, Element N]",2,Ca2 N1,0.0,-0.8977212895833341,2.164011901034173
mp-25274,Mo3O8,"[Element Mo, Element O]",2,Mo3 O8,0.0,-1.62755183,4.327396653968748
mp-2584,TbFe3,"[Element Fe, Element Tb]",2,Tb3 Fe9,0.0,-0.0535225625,8.641949634973608
mp-25424,MnO2,"[Element Mn, Element O]",2,Mn1 O2,1.5791,-1.761642781810345,4.455571193247701
mp-27440,ZrCl,"[Element Cl, Element Zr]",2,Zr2 Cl2,0.0,-1.47696147125,4.519365844280167
mp-1185562,CsGd,"[Element Cs, Element Gd]",2,Cs1 Gd1,0.0,0.6319218660344811,4.7560978991729925
mp-1185580,Mg149Pd,"[Element Mg, Element Pd]",2,Mg149 Pd1,0.014100000000000001,-0.0042540893666660005,1.815123283659959
mp-1185579,Mg149Hg,"[Element Hg, Element Mg]",2,Mg149 Hg1,0.5682,-0.000680090049999,1.854373533670693
mp-1185581,Mg149Cd,"[Element Cd, Element Mg]",2,Mg149 Cd1,0.0,0.0011511928333330001,1.844559648577803
mp-1185570,Mg149Pb,"[Element Mg, Element Pb]",2,Mg149 Pb1,0.383,0.0010676371,1.8571563355149951
mp-1185578,Mg149S,"[Element Mg, Element S]",2,Mg149 S1,0.0,-0.001504465016665,1.8080709544474671
mp-1185582,Mg149Rh,"[Element Mg, Element Rh]",2,Mg149 Rh1,0.0442,-0.0014716242999990002,1.80369968842384
mp-1185583,Mg149Re,"[Element Mg, Element Re]",2,Mg149 Re1,0.11079999999999901,0.015688513283333,1.834304936414521
mp-1185585,Mg149Cr,"[Element Cr, Element Mg]",2,Mg149 Cr1,0.0245,0.010655343366666,1.776729495002174
mp-1185592,Mg149Fe,"[Element Fe, Element Mg]",2,Mg149 Fe1,0.07790000000000001,0.015586644366666002,1.7705942135680521
mp-1185591,Mg149Ag,"[Element Ag, Element Mg]",2,Mg149 Ag1,0.5665,0.001092287822222,1.816108587056529
mp-1185589,Mg149Nb,"[Element Mg, Element Nb]",2,Mg149 Nb1,0.11850000000000001,0.013537042166666001,1.7970143827543001
mp-1185586,Mg149Be,"[Element Be, Element Mg]",2,Mg149 Be1,0.5261,0.011578638333333,1.770643980358718
mp-1185584,Mg149Cl,"[Element Cl, Element Mg]",2,Mg149 Cl1,0.0,-0.0026905247000000004,1.801353180787078
mp-1185590,Mg149I,"[Element I, Element Mg]",2,Mg149 I1,0.002499999999999,0.005881436866667001,1.8179384848233542
mp-1185627,Mg149Mn,"[Element Mg, Element Mn]",2,Mg149 Mn1,0.10950000000000001,0.018153133180459,1.788015279345001
mp-1185593,Mg149P,"[Element Mg, Element P]",2,Mg149 P1,0.000299999999999,0.005223285535714,1.7656751270282771
mp-1185594,Mg149In,"[Element In, Element Mg]",2,Mg149 In1,0.5296000000000001,3.3331722222555994e-05,1.800697333301375
mp-1185599,Mg149Ni,"[Element Mg, Element Ni]",2,Mg149 Ni1,0.015099999999999001,0.0055941529666660005,1.7837381497517901
mp-1185628,Mg149Sb,"[Element Mg, Element Sb]",2,Mg149 Sb1,0.26679999999999904,7.442650000029973e-05,1.797446310734769
mp-1185597,Mg149Ga,"[Element Ga, Element Mg]",2,Mg149 Ga1,0.47790000000000005,0.0009263836499990001,1.801585230599232
mp-1185595,LuMg149,"[Element Lu, Element Mg]",2,Lu1 Mg149,0.3255,0.003968756322222,1.8154568284560342
mp-1185596,Mg149Al,"[Element Al, Element Mg]",2,Mg149 Al1,0.5011,0.002754187233333,1.7725379599159201
mp-1185639,Mg149Ti,"[Element Mg, Element Ti]",2,Mg149 Ti1,0.200299999999999,0.009609734877778001,1.784807173017541
mp-1185638,Mg149Te,"[Element Mg, Element Te]",2,Mg149 Te1,0.1529,-0.000809762744444,1.824758592749987
mp-1185637,Mg149Sn,"[Element Mg, Element Sn]",2,Mg149 Sn1,0.4181,-0.00046585679999900005,1.816857544956639
mp-1185636,Mg149Tc,"[Element Mg, Element Tc]",2,Mg149 Tc1,0.09729999999999901,0.011314225866667001,1.799824487626069
mp-1185634,Mg149Si,"[Element Mg, Element Si]",2,Mg149 Si1,0.34039999999999904,0.0058617449,1.772682412757516
mp-1185631,Mg149Sc,"[Element Mg, Element Sc]",2,Mg149 Sc1,0.24960000000000002,0.0037898423333330004,1.7741469245418031
mp-1185640,Mg149Ta,"[Element Mg, Element Ta]",2,Mg149 Ta1,0.1461,0.016626209384444,1.836390808574159
mp-1185635,Mg149Tl,"[Element Mg, Element Tl]",2,Mg149 Tl1,0.488799999999999,0.0014349356111110002,1.8613493575493112
mp-1185632,Mg149Se,"[Element Mg, Element Se]",2,Mg149 Se1,0.1711,-0.002931664048958,1.798530670553617
mp-1186468,PrSm,"[Element Pr, Element Sm]",2,Pr1 Sm1,0.0,0.035616304166666,6.74904056949219
mp-1186599,NdMg149,"[Element Mg, Element Nd]",2,Nd1 Mg149,0.193999999999999,0.005738530183333,1.7915382200257062
mp-1185966,MgSc3,"[Element Mg, Element Sc]",2,Mg1 Sc3,0.0,0.032253865,2.663758480194669
mp-1185641,Mg149V,"[Element Mg, Element V]",2,Mg149 V1,0.08070000000000001,0.0115107451,1.7839435523739122
mp-1186388,NpZn,"[Element Np, Element Zn]",2,Np1 Zn1,0.0,0.17666114562499702,14.737945636377951
mp-1185642,Mg149Zn,"[Element Mg, Element Zn]",2,Mg149 Zn1,0.5779999999999991,0.002265531566666,1.775146574777531
mp-1185655,Mg149Zr,"[Element Mg, Element Zr]",2,Mg149 Zr1,0.033399999999999,0.008664271433333,1.800725450403152
mp-1186397,PaCd,"[Element Cd, Element Pa]",2,Pa1 Cd1,0.0,0.042395310000003,11.866093388621236
mp-1186146,NaLa,"[Element La, Element Na]",2,Na1 La1,0.0,0.178844859224135,3.681394464195121
mp-1185913,MgIn2,"[Element In, Element Mg]",2,Mg2 In4,0.0,-0.016698164444441003,5.723128638809743
mp-1186147,NpCd,"[Element Cd, Element Np]",2,Np1 Cd1,0.0,0.22430856062499702,14.129683057559312
mp-1186582,PmHf,"[Element Hf, Element Pm]",2,Pm1 Hf1,0.0,0.26037622124999804,9.808656725605923
mp-1186027,MoSe,"[Element Mo, Element Se]",2,Mo1 Se1,0.0,0.056993882968750006,8.652522304671301
mp-1186271,NaMg149,"[Element Mg, Element Na]",2,Na1 Mg149,0.0,0.010844298766665001,1.794206867657465
mp-1186337,NdZr,"[Element Nd, Element Zr]",2,Nd1 Zr1,0.0,0.21354851124999902,6.911113362662028
mp-1186593,PmI,"[Element I, Element Pm]",2,Pm1 I1,0.0,-1.103290356249999,7.197946627403804
mp-1186331,NdTm,"[Element Nd, Element Tm]",2,Nd1 Tm1,0.0,0.048928136249998005,7.889507377562579
mp-1186423,PaTi,"[Element Pa, Element Ti]",2,Pa1 Ti1,0.0,0.093168068333341,11.024732281454948
mp-1186411,PaTa,"[Element Pa, Element Ta]",2,Pa1 Ta1,0.0,0.281401289999998,15.587624920267364
mp-1186459,PdRu,"[Element Pd, Element Ru]",2,Pd1 Ru1,0.0,0.22767217999999903,11.778859340514988
mp-1186175,NaPt,"[Element Na, Element Pt]",2,Na1 Pt1,0.0,-0.24226797913793502,10.520500271782891
mp-1185885,MgHg5,"[Element Hg, Element Mg]",2,Mg1 Hg5,0.0,-0.005598934583338,10.887057704006876
mp-1185999,MgPb2,"[Element Mg, Element Pb]",2,Mg2 Pb4,0.0,0.01837737,8.711034100137557
mp-1186683,PmZr,"[Element Pm, Element Zr]",2,Pm1 Zr1,0.0,0.19123801625000403,7.032384107521747
mp-1186748,PmMg149,"[Element Mg, Element Pm]",2,Pm1 Mg149,0.197,0.005432665850000001,1.81104909555
mp-1186621,PmNp,"[Element Np, Element Pm]",2,Pm1 Np1,0.0,0.604018181875005,10.874746843843564
mp-1186753,PrNd,"[Element Nd, Element Pr]",2,Pr1 Nd1,0.0,0.037916870416669,6.497565317432172
mp-1186632,PmPr,"[Element Pm, Element Pr]",2,Pm1 Pr1,0.0,0.037384110416667005,6.5965022767737995
mp-1186775,SrYb,"[Element Sr, Element Yb]",2,Sr1 Yb1,0.0,0.315296387499998,5.514051943968022
mp-1186770,SrTb,"[Element Sr, Element Tb]",2,Sr1 Tb1,0.0,0.243016261666667,5.107951605772764
mp-1186634,PmSm,"[Element Pm, Element Sm]",2,Pm1 Sm1,0.0,0.022202596249999002,7.043617692563422
mp-1186994,PrMg149,"[Element Mg, Element Pr]",2,Pr1 Mg149,0.17520000000000002,0.006248354222222001,1.810310191754359
mp-1187033,SmPa,"[Element Pa, Element Sm]",2,Sm1 Pa1,0.0,0.24941724250000102,11.233981533854331
mp-1186915,ReTc,"[Element Re, Element Tc]",2,Re1 Tc1,0.0,-0.006981326249999,16.23678583853694
mp-1187187,SrLu,"[Element Lu, Element Sr]",2,Sr1 Lu1,0.0,0.296639551666665,5.6621430452187305
mp-1186637,PmPa,"[Element Pa, Element Pm]",2,Pm1 Pa1,0.0,0.26362563125000005,10.984303332214608
mp-1186614,PmNd,"[Element Nd, Element Pm]",2,Pm1 Nd1,0.0,0.025184602500001003,6.7194024485851305
mp-1186898,RbYb,"[Element Rb, Element Yb]",2,Rb1 Yb1,0.0,0.6841685618749971,5.08219524519348
mp-1186779,PtAu,"[Element Au, Element Pt]",2,Pt1 Au1,0.0,0.028669980000003002,19.83379299558447
mp-1186653,PmTm,"[Element Pm, Element Tm]",2,Pm1 Tm1,0.0,0.024188436249999,7.827389454323626
mp-1187244,TaP,"[Element P, Element Ta]",2,Ta1 P1,0.0,-0.9923128176547631,11.12875949461362
mp-1187259,SrEu,"[Element Eu, Element Sr]",2,Sr1 Eu1,0.0,0.0200322775,3.90114650375514
mp-1186769,SrY,"[Element Sr, Element Y]",2,Sr1 Y1,0.0,0.22853245833333302,3.620481421143926
mp-1187094,SmPu,"[Element Pu, Element Sm]",2,Sm1 Pu1,0.0,0.191284567499998,9.75960287085276
mp-1187341,TbHf,"[Element Hf, Element Tb]",2,Tb1 Hf1,0.0,0.174190115000001,10.530546484528873
mp-1186661,PuCl,"[Element Cl, Element Pu]",2,Pu1 Cl1,0.0,-1.376743084687504,9.365887335185617
mp-1187011,SmHf,"[Element Hf, Element Sm]",2,Sm1 Hf1,0.0,0.240878912500001,10.026973584409186
mp-1187029,SmZr,"[Element Sm, Element Zr]",2,Sm1 Zr1,0.0,0.1747259425,7.230014885163499
mp-1187343,RbMg149,"[Element Mg, Element Rb]",2,Rb1 Mg149,0.021300000000000003,0.017831276183333,1.7643819665461131