material_id,formula_pretty,elements,nelements,composition,band_gap,formation_energy_per_atom,density
mp-1245077,WO2,"[Element O, Element W]",2,W34 O68,0.7629,-1.5221633307843132,7.219619512028572
mp-1245078,Fe2O3,"[Element Fe, Element O]",2,Fe32 O48,1.1123,-1.401270212874999,4.009734414947935
mp-1245091,Cr2O3,"[Element Cr, Element O]",2,Cr32 O48,0.46799999999999903,-1.90566071875,4.196064788212092
mp-1245098,TiO2,"[Element O, Element Ti]",2,Ti30 O60,2.6007,-3.341442911333334,3.363887407573496
mp-1245106,GaN,"[Element Ga, Element N]",2,Ga50 N50,0.0,0.05464796962500001,2.825419233977375
mp-1245096,V2O5,"[Element O, Element V]",2,V30 O75,0.7321000000000001,-1.7811700541428581,2.629047739006507
mp-1245110,Al2O,"[Element Al, Element O]",2,Al36 O18,0.0,-1.720063567407406,1.513156167466322
mp-1245095,GaN,"[Element Ga, Element N]",2,Ga50 N50,0.0,0.012216114724999,4.183661620711854
mp-1245099,CoO2,"[Element Co, Element O]",2,Co30 O60,0.13419999999999901,-0.34032196800000003,3.9435411199993453
mp-1245097,V2O5,"[Element O, Element V]",2,V30 O75,0.46669999999999906,-1.79824661404762,2.3678854479830402
mp-1245101,V2O5,"[Element O, Element V]",2,V30 O75,0.7825000000000001,-1.805941353857144,2.495114237676296
mp-1245107,HfO2,"[Element Hf, Element O]",2,Hf34 O68,3.7499000000000002,-3.792694125784312,8.93962545120878
mp-1245109,ZnO,"[Element O, Element Zn]",2,Zn40 O40,1.2176,-1.543852975125,5.110085339072356
mp-1245102,WO2,"[Element O, Element W]",2,W34 O68,0.8365,-1.546433089607842,7.858170757956688
mp-1245104,Al2O3,"[Element Al, Element O]",2,Al40 O60,3.2726,-3.16067864,3.015817824478258
mp-1245111,Al2O3,"[Element Al, Element O]",2,Al40 O60,3.5496,-3.2658538131,3.106287401785614
mp-1245119,CoO2,"[Element Co, Element O]",2,Co30 O60,0.02,-0.48400639300000003,3.786956522244683
mp-1245125,MoO3,"[Element Mo, Element O]",2,Mo25 O75,0.9064000000000001,-1.335442771049999,2.913519935929321
mp-1245116,SnO2,"[Element O, Element Sn]",2,Sn30 O60,0.6303000000000001,-1.4422500915555552,5.919493884523696
mp-1245115,SnO,"[Element O, Element Sn]",2,Sn40 O40,0.43610000000000004,-1.404707638624999,5.00868926168813
mp-1245122,ZnS,"[Element S, Element Zn]",2,Zn50 S50,1.273699999999999,-0.563008799863391,3.442982948240086
mp-1245117,ZnS,"[Element S, Element Zn]",2,Zn50 S50,0.34229999999999905,-0.5502282788633921,3.396601331167333
mp-1245118,V2O5,"[Element O, Element V]",2,V30 O75,0.7675000000000001,-1.769854799761906,2.428213774846436
mp-1245113,Al38O21,"[Element Al, Element O]",2,Al38 O21,0.0,-1.853587141271187,1.5925513539216052
mp-1245126,SnO2,"[Element O, Element Sn]",2,Sn34 O68,0.3577,-1.374145217549019,5.745643952947093
mp-1245120,V2O5,"[Element O, Element V]",2,V30 O75,1.8967,-2.221472655,2.4950660614701072
mp-1245112,HfO2,"[Element Hf, Element O]",2,Hf34 O68,3.620099999999999,-3.809903184313724,8.934776811162463
mp-1245123,Si3N4,"[Element N, Element Si]",2,Si45 N60,0.6301999999999991,-0.575105064714285,2.714799727571065
mp-1245121,ZnS,"[Element S, Element Zn]",2,Zn50 S50,1.0069,-0.5531619673633911,3.37080819483124
mp-1245134,TiO2,"[Element O, Element Ti]",2,Ti30 O60,2.4383,-3.328620551666667,3.507542945745311
mp-1245140,Ti3O,"[Element O, Element Ti]",2,Ti75 O25,0.0,-1.28731954965,4.64002642331426
mp-1245130,GaN,"[Element Ga, Element N]",2,Ga50 N50,0.09680000000000001,0.016404070824999003,4.211997711492009
mp-1245128,MgO,"[Element Mg, Element O]",2,Mg40 O40,1.9477000000000002,-2.692755621125,2.8198755406764713
mp-1245138,GaN,"[Element Ga, Element N]",2,Ga50 N50,0.0099,0.035580834224999004,4.510914234137706
mp-1245137,V2O5,"[Element O, Element V]",2,V30 O75,0.3371,-2.181193420047619,2.3901403424579972
mp-1245133,SnO,"[Element O, Element Sn]",2,Sn40 O40,0.48149999999999904,-1.390872737624999,5.069638452899289
mp-1245132,GaN,"[Element Ga, Element N]",2,Ga50 N50,0.0,0.008201695024999001,4.613256498712227
mp-1245141,TiO,"[Element O, Element Ti]",2,Ti50 O50,0.016300000000000002,-2.596251202566668,4.399293330819819
mp-1245136,ZnS,"[Element S, Element Zn]",2,Zn50 S50,1.0437,-0.518709822563391,3.402311028375854
mp-1245135,Ti3O5,"[Element O, Element Ti]",2,Ti39 O65,0.066399999999999,-3.18490112735577,3.925101746047003
mp-1245142,V2O5,"[Element O, Element V]",2,V30 O75,0.40929999999999905,-1.784376870809525,2.325045025189711
mp-1245148,GaN,"[Element Ga, Element N]",2,Ga50 N50,0.0,0.007386735724999,4.725095453547163
mp-1245156,V2O5,"[Element O, Element V]",2,V30 O75,1.8996,-2.199048119000001,2.8127922117022193
mp-1245150,GaN,"[Element Ga, Element N]",2,Ga50 N50,0.0,0.062435537824999006,4.288399049640711
mp-1245154,Fe2O3,"[Element Fe, Element O]",2,Fe32 O48,0.3798,-1.386215079999999,4.0128891963999
mp-1245157,MgO,"[Element Mg, Element O]",2,Mg40 O40,2.081499999999999,-2.6899893985,2.728925953408256
mp-1245149,TaN,"[Element N, Element Ta]",2,Ta50 N50,0.036500000000000005,-0.8572251582083341,12.674368079357846
mp-1245158,AlF3,"[Element Al, Element F]",2,Al25 F75,5.5824,-3.670061017199999,2.786878292020487
mp-1245160,V2O5,"[Element O, Element V]",2,V30 O75,0.5126000000000001,-1.805477835190477,2.447735842001453
mp-1245153,V2O5,"[Element O, Element V]",2,V30 O75,0.6525000000000001,-1.7709441082380961,2.445220456712072
mp-1245143,MgO,"[Element Mg, Element O]",2,Mg40 O40,1.877299999999999,-2.697001558374999,2.68981320454016
mp-1245145,AlF3,"[Element Al, Element F]",2,Al25 F75,5.4932,-3.6931852623999992,2.874059209225793
mp-1245146,GaSb,"[Element Ga, Element Sb]",2,Ga50 Sb50,0.0,0.055941215500001,5.664117089486594
mp-1245172,GaN,"[Element Ga, Element N]",2,Ga50 N50,0.0262,0.022247760624999002,4.842583354479416
mp-1245175,TaN,"[Element N, Element Ta]",2,Ta50 N50,0.0034000000000000002,-0.8426125090083361,12.526735267480136
mp-1245176,Ti3O,"[Element O, Element Ti]",2,Ti75 O25,0.0,-1.278886766449999,4.616475057069482
mp-1245165,GaN,"[Element Ga, Element N]",2,Ga50 N50,0.0,0.048989490324999004,4.715695349995898
mp-1245177,P2O5,"[Element O, Element P]",2,P30 O75,0.30660000000000004,-1.6351582178503392,1.887338560987305
mp-1245162,V2O5,"[Element O, Element V]",2,V30 O75,1.5838,-2.201962647952381,2.712395447932591
mp-1245167,Ga2O3,"[Element Ga, Element O]",2,Ga32 O48,2.047,-2.112148178,4.625876056136708
mp-1245168,FeO,"[Element Fe, Element O]",2,Fe40 O40,0.0541,-1.17582466675,4.149972363074716
mp-1245171,V2O5,"[Element O, Element V]",2,V30 O75,0.9141999999999991,-1.778076009285714,2.486934393323737
mp-1245173,Al2O3,"[Element Al, Element O]",2,Al40 O60,3.814899999999999,-3.272600361699999,3.046847540598428
mp-1245169,ZnS,"[Element S, Element Zn]",2,Zn50 S50,0.9117999999999991,-0.511093959963392,3.406059766791562
mp-1245174,V2O5,"[Element O, Element V]",2,V30 O75,0.7431,-1.801131843476191,2.609510498012753
mp-1245178,SnO2,"[Element O, Element Sn]",2,Sn30 O60,1.0304,-1.833281101999999,6.089633065452924
mp-1245186,Ti2O,"[Element O, Element Ti]",2,Ti68 O34,0.0,-1.7156359779084962,4.546801819173397
mp-1245191,Al2O3,"[Element Al, Element O]",2,Al40 O60,3.645299999999999,-3.248761434399999,3.001332099500094
mp-1245195,MgO,"[Element Mg, Element O]",2,Mg40 O40,2.074999999999999,-2.6935720832500003,2.731932072836869
mp-1245182,WO3,"[Element O, Element W]",2,W25 O75,2.0754,-1.947100805249999,5.529311001900361
mp-1245188,GaN,"[Element Ga, Element N]",2,Ga50 N50,0.0,0.015662735925,4.485100277380716
mp-1245194,ZnS,"[Element S, Element Zn]",2,Zn50 S50,1.2387000000000001,-0.5629282242633911,3.202557748065416
mp-1245181,GaN,"[Element Ga, Element N]",2,Ga50 N50,0.0,0.033234806924999,4.665709897042528
mp-1245196,Al2O3,"[Element Al, Element O]",2,Al40 O60,3.2057,-3.1945276731,2.979058797204627
mp-1245185,B2O3,"[Element B, Element O]",2,B40 O60,4.1765,-2.689614554366667,1.745736772634502
mp-1245183,Al2O3,"[Element Al, Element O]",2,Al40 O60,3.4985,-3.226366993299999,3.025238792294083
mp-1245192,BaO,"[Element Ba, Element O]",2,Ba50 O50,1.3032,-2.6176658503,4.867820766142586
mp-1245193,BN,"[Element B, Element N]",2,B50 N50,0.2781,-0.5966624877250011,1.814704087367817
mp-1245189,NbO2,"[Element Nb, Element O]",2,Nb34 O68,0.0,-2.6385700445098053,5.185082685730055
mp-1245197,ZnS,"[Element S, Element Zn]",2,Zn50 S50,0.8638,-0.507706792263392,3.336578600438042
mp-1245203,SnO2,"[Element O, Element Sn]",2,Sn30 O60,0.6969000000000001,-1.458423756555554,5.708276328381167
mp-1245200,CaO,"[Element Ca, Element O]",2,Ca50 O50,1.997399999999999,-2.9645161929,2.786404185829366
mp-1245198,V2O5,"[Element O, Element V]",2,V30 O75,0.24950000000000003,-1.770224369095239,2.26323296400511
mp-1245202,In2O3,"[Element In, Element O]",2,In40 O60,0.681199999999999,-1.581662649266665,6.21798118233682
mp-1245199,ZnS,"[Element S, Element Zn]",2,Zn50 S50,1.253299999999999,-0.546143316563392,3.402578320417362
mp-1245209,ZnO,"[Element O, Element Zn]",2,Zn40 O40,1.2421,-1.5460531986250001,4.98360330117961
mp-1245212,B2O3,"[Element B, Element O]",2,B40 O60,4.4300999999999995,-2.675961884866666,1.5932146122464812
mp-1245205,Na2O,"[Element Na, Element O]",2,Na68 O34,0.11619999999999901,-1.159457945233265,1.8984621189416062
mp-1245206,Ti2O,"[Element O, Element Ti]",2,Ti68 O34,0.0,-1.693020195751633,4.492401777896594
mp-1245208,Cr2O3,"[Element Cr, Element O]",2,Cr32 O48,0.27479999999999905,-2.003062087499999,4.398181746984658
mp-1245201,ZnS,"[Element S, Element Zn]",2,Zn50 S50,0.8819999999999991,-0.5147890784633921,3.4318423868861743
mp-1245221,V2O5,"[Element O, Element V]",2,V30 O75,0.926099999999999,-1.809130635666667,2.359376096543632
mp-1245219,V2O5,"[Element O, Element V]",2,V30 O75,0.44880000000000003,-2.163310336333333,2.831075240719602
mp-1245213,ZnS,"[Element S, Element Zn]",2,Zn50 S50,0.8508000000000001,-0.549567934763392,3.432845560415247
mp-1245216,ZnS,"[Element S, Element Zn]",2,Zn50 S50,0.8635,-0.49521420646339204,3.538992880607663
mp-1245215,Al2O,"[Element Al, Element O]",2,Al36 O18,0.0,-1.720125807777777,1.517932958336401
mp-1245227,WO2,"[Element O, Element W]",2,W34 O68,0.5707,-1.555619450196077,7.346692419332863
mp-1245218,P2O5,"[Element O, Element P]",2,P30 O75,1.7562,-1.882116491945577,1.9910787055263681
mp-1245226,HfO2,"[Element Hf, Element O]",2,Hf34 O68,3.401,-3.803038373333333,8.793253202528755
mp-1245217,GaSb,"[Element Ga, Element Sb]",2,Ga50 Sb50,0.0,0.08400354530000101,5.816915699272184
mp-1245224,Li2O,"[Element Li, Element O]",2,Li68 O34,2.735999999999999,-1.911912091045751,1.7178391162021351
mp-1245220,ZnS,"[Element S, Element Zn]",2,Zn50 S50,1.0574,-0.524696191963391,3.375122418503077
mp-1245222,ZnS,"[Element S, Element Zn]",2,Zn50 S50,0.47600000000000003,-0.5025299930633921,3.346384158474641
mp-1245231,BN,"[Element B, Element N]",2,B50 N50,1.6715,-0.753779163225001,1.6304233174759801
mp-1245233,GaN,"[Element Ga, Element N]",2,Ga50 N50,0.0,-0.021195647675001,4.225344491811226
mp-1245246,ZnS,"[Element S, Element Zn]",2,Zn50 S50,1.0438,-0.541073670363391,3.478154276570149
mp-1245238,ZnS,"[Element S, Element Zn]",2,Zn50 S50,1.2996,-0.502598606463392,3.344412060118927
mp-1245232,MgO,"[Element Mg, Element O]",2,Mg40 O40,1.887699999999999,-2.716710592375,2.744196328270419
mp-1245236,ZnS,"[Element S, Element Zn]",2,Zn50 S50,0.8346,-0.533589992463391,3.381851496787245
mp-1245237,Al2O3,"[Element Al, Element O]",2,Al40 O60,3.928,-3.208091208899999,2.90933081546506
mp-1245229,Si3N4,"[Element N, Element Si]",2,Si45 N60,1.4928,-0.9565449996666671,2.992100528887412
mp-1245234,Al2O3,"[Element Al, Element O]",2,Al40 O60,3.110699999999999,-3.217383678699999,3.078078852323382
mp-1245228,BN,"[Element B, Element N]",2,B50 N50,1.7402000000000002,-0.7468010057250011,1.6908163520398012
mp-1245245,P2O5,"[Element O, Element P]",2,P30 O75,0.017199999999999,-1.677476678040816,2.03819750004384
mp-1245240,V2O5,"[Element O, Element V]",2,V30 O75,0.3435,-1.781962684333334,2.239855088876282
mp-1245244,GaN,"[Element Ga, Element N]",2,Ga50 N50,0.0195,0.032771455624999,4.430693257354139
mp-1245250,Al38O21,"[Element Al, Element O]",2,Al38 O21,0.0,-1.846094399745763,1.6315696844791892
mp-1245257,Cr2O3,"[Element Cr, Element O]",2,Cr32 O48,0.6132000000000001,-2.003342087,4.262878245697064
mp-1245247,Cr2O3,"[Element Cr, Element O]",2,Cr32 O48,0.7144,-1.9960908367499992,4.298574205239804
mp-1245252,SbN,"[Element N, Element Sb]",2,Sb50 N50,0.298699999999999,0.23308723180000002,2.798676833698469
mp-1245262,Al2O3,"[Element Al, Element O]",2,Al40 O60,4.0581,-3.266351168899999,3.041938505833649
mp-1245249,Si3N4,"[Element N, Element Si]",2,Si45 N60,0.6779000000000001,-0.734590487761904,2.906726523017375
mp-1245255,ZnO,"[Element O, Element Zn]",2,Zn40 O40,0.93,-1.402543445625,4.982001878640084
mp-1245263,Si3N4,"[Element N, Element Si]",2,Si45 N60,1.994099999999999,-0.9343708625238091,2.999979170538526
mp-1245254,Al2O3,"[Element Al, Element O]",2,Al40 O60,3.4308,-3.188137100599999,3.038132281741526
mp-1245248,ZnS,"[Element S, Element Zn]",2,Zn50 S50,0.793199999999999,-0.508590539963393,3.374466291188975
mp-1245258,GaN,"[Element Ga, Element N]",2,Ga50 N50,0.0,0.042158507024998,4.64612094585954
mp-1245264,Ta2O5,"[Element O, Element Ta]",2,Ta30 O75,2.5694,-3.145390609476191,6.498461649040488
mp-1245251,Al2O3,"[Element Al, Element O]",2,Al40 O60,3.264099999999999,-3.217814446999999,3.231429088358355
mp-1245275,V2O5,"[Element O, Element V]",2,V30 O75,0.9927999999999991,-1.798510477190476,2.253662027512913
mp-1245274,GaAs,"[Element As, Element Ga]",2,Ga50 As50,0.0,-0.018212712649999,5.118591675684371
mp-1245277,Fe2O3,"[Element Fe, Element O]",2,Fe32 O48,0.3018,-1.3627964538750001,3.897868355487951
mp-1245267,WO3,"[Element O, Element W]",2,W25 O75,1.9695,-1.946403018449999,5.370316480929472
mp-1245271,WO2,"[Element O, Element W]",2,W34 O68,0.8047000000000001,-1.5159734133333331,7.78731631407754
mp-1245272,V2O5,"[Element O, Element V]",2,V30 O75,0.9500000000000001,-1.7685769885238112,2.515967712903512
mp-1245270,B2O3,"[Element B, Element O]",2,B40 O60,4.4793,-2.669485719166666,1.623664228430063
mp-1245276,BaO,"[Element Ba, Element O]",2,Ba50 O50,1.749499999999999,-2.594275191599999,4.884183199503542
mp-1245268,WO3,"[Element O, Element W]",2,W25 O75,0.341599999999999,-1.94441919925,5.315528317152668
mp-1245278,Na2O,"[Element Na, Element O]",2,Na68 O34,0.6804,-1.278846546409736,2.008383844612405
mp-1245280,ZnS,"[Element S, Element Zn]",2,Zn50 S50,1.1832,-0.5261338309633921,3.454425136190244
mp-1245279,Al2O3,"[Element Al, Element O]",2,Al40 O60,3.4983999999999993,-3.232979468899999,2.97000997123265
mp-1245265,Al2O3,"[Element Al, Element O]",2,Al40 O60,3.339299999999999,-3.1951873612,3.00491542668578
mp-1245291,Y2O3,"[Element O, Element Y]",2,Y40 O60,2.9366000000000003,-3.692728116,4.718233851405909
mp-1245283,V2O5,"[Element O, Element V]",2,V30 O75,0.8613000000000001,-1.751622580904762,2.373903537307231
mp-1245293,MoO3,"[Element Mo, Element O]",2,Mo25 O75,0.9331,-1.394368174949999,3.142030407667731
mp-1245287,Si3N4,"[Element N, Element Si]",2,Si45 N60,0.181899999999999,-0.695220329095237,2.876859228420422
mp-1245282,SnO2,"[Element O, Element Sn]",2,Sn34 O68,0.0,-1.604445940980392,5.848087057224702
mp-1245284,V2O5,"[Element O, Element V]",2,V30 O75,1.0438,-1.786039065666668,2.388276586040625
mp-1245281,BN,"[Element B, Element N]",2,B50 N50,0.054400000000000004,-0.5776689997250011,1.653412680194745
mp-1245286,GaN,"[Element Ga, Element N]",2,Ga50 N50,0.0,0.014588705324999,4.6339321772448745
mp-1245285,Ta2O5,"[Element O, Element Ta]",2,Ta30 O75,2.9624,-3.167288961761904,6.738376840563058
mp-1245288,GaN,"[Element Ga, Element N]",2,Ga50 N50,0.0,0.012468350924998001,4.5807635348950715
mp-1245292,Ti3O5,"[Element O, Element Ti]",2,Ti39 O65,0.035099999999999,-3.180705833990385,3.75868273683066
mp-1245305,CaO,"[Element Ca, Element O]",2,Ca50 O50,2.4659,-3.0106410766,2.815611340595657
mp-1245296,ZnS,"[Element S, Element Zn]",2,Zn50 S50,0.823399999999999,-0.48856356566339104,3.427296143919131
mp-1245295,GaN,"[Element Ga, Element N]",2,Ga50 N50,0.0,0.037747807524999004,4.637231548788652
mp-1245300,ZnS,"[Element S, Element Zn]",2,Zn50 S50,1.144199999999999,-0.560009433363392,3.3225761973702452
mp-1245298,BaO,"[Element Ba, Element O]",2,Ba50 O50,1.7653999999999992,-2.6247761585,4.8757244000206565
mp-1245294,TiO,"[Element O, Element Ti]",2,Ti50 O50,0.0,-2.592523745866667,4.4920109044322345
mp-1245303,Li2O,"[Element Li, Element O]",2,Li68 O34,2.7845,-1.9030237761437911,1.723042170091859
mp-1245302,GaN,"[Element Ga, Element N]",2,Ga50 N50,0.08309999999999901,0.057728132424999,4.27551490229357
mp-1245301,BN,"[Element B, Element N]",2,B50 N50,0.8285,-0.7916271076250001,1.651114895271283
mp-1245304,CoO,"[Element Co, Element O]",2,Co40 O40,0.347099999999999,-0.887707466874999,4.769569983452121
mp-1245299,Ta2O5,"[Element O, Element Ta]",2,Ta30 O75,3.145899999999999,-3.163794870904762,6.225788465343637
mp-1245297,BN,"[Element B, Element N]",2,B50 N50,1.0362,-0.5875301944250001,1.829845061082032
mp-1245308,TiO2,"[Element O, Element Ti]",2,Ti30 O60,2.3002000000000002,-3.337827311,3.717563412087061
mp-1245312,V2O5,"[Element O, Element V]",2,V30 O75,0.8909,-1.771139537285715,2.592591433576626
mp-1245309,Ti2O,"[Element O, Element Ti]",2,Ti68 O34,0.0,-1.712045167614379,4.525877121113308
mp-1245316,ZnS,"[Element S, Element Zn]",2,Zn50 S50,0.6392,-0.49061181586339203,3.332050877034095
mp-1245315,V2O5,"[Element O, Element V]",2,V30 O75,1.1409,-1.814763328238096,2.438372359014706
mp-1245311,BaO,"[Element Ba, Element O]",2,Ba50 O50,1.480999999999999,-2.6521903023,4.812621533262382
mp-1245317,ZnS,"[Element S, Element Zn]",2,Zn50 S50,1.170599999999999,-0.543908413663392,3.361885434654698
mp-1245321,TiO2,"[Element O, Element Ti]",2,Ti30 O60,2.4087,-3.318757430666667,3.4652433026979352
mp-1245318,ZrO2,"[Element O, Element Zr]",2,Zr30 O60,2.9114,-3.590938117111112,5.262636308408363
mp-1245319,ZnS,"[Element S, Element Zn]",2,Zn50 S50,1.4226,-0.5269728761633921,3.4200038690571
mp-1245322,SbN,"[Element N, Element Sb]",2,Sb50 N50,0.30010000000000003,0.212051112900001,2.866408428391064
mp-1245310,ZnS,"[Element S, Element Zn]",2,Zn50 S50,0.585,-0.516922992563393,3.328938959102771
mp-1245323,Al2O3,"[Element Al, Element O]",2,Al40 O60,1.705699999999999,-3.009694922999999,3.034487173951238
mp-1245314,GaAs,"[Element As, Element Ga]",2,Ga50 As50,0.0,-0.036435881249999004,5.082215393249245
mp-1247858,Ag2Te,"[Element Ag, Element Te]",2,Ag8 Te4,0.06519999999999901,2.294528760833335,0.25472694867010803
mp-1245326,GaN,"[Element Ga, Element N]",2,Ga50 N50,0.0,0.034190144125,4.677882949535823
mp-1247838,Al2Se3,"[Element Al, Element Se]",2,Al4 Se6,0.5859999999999991,0.8037999825625001,0.33960900293768803
mp-1289705,VO2,"[Element O, Element V]",2,V8 O16,1.246,-2.408772476250001,3.921268371270814
mp-1247882,As12S13,"[Element As, Element S]",2,As24 S26,0.48039999999999905,0.074955975587502,2.512567984354914
mp-1245327,Cr2O3,"[Element Cr, Element O]",2,Cr32 O48,0.35090000000000005,-1.9053456338749992,3.892824899917584
mp-1245329,SnO,"[Element O, Element Sn]",2,Sn40 O40,0.5174000000000001,-1.432391936375,5.1852054418059
mp-1250351,MgSi2,"[Element Mg, Element Si]",2,Mg4 Si8,0.0,0.26449109666666604,2.623085027337274
mp-1262335,Mg2Si3,"[Element Mg, Element Si]",2,Mg8 Si12,0.0,0.21026780899999903,2.375861880301999
mp-1247839,Al2O3,"[Element Al, Element O]",2,Al32 O48,1.384599999999999,-2.8852158142500013,3.070219232546418
mp-1247880,Al2O3,"[Element Al, Element O]",2,Al18 O27,0.005099999999999,-3.326816953,3.189060400529189
mp-1245324,TiO,"[Element O, Element Ti]",2,Ti50 O50,0.0007000000000000001,-2.572668623966668,4.347487057898251
mp-1245325,V2O5,"[Element O, Element V]",2,V30 O75,1.073899999999999,-1.777081914238096,2.396386060781244
mp-1250755,Si3O7,"[Element O, Element Si]",2,Si6 O14,0.20499999999999902,-2.345288176999999,1.8474296131355872
mp-1250310,Mg4Si7,"[Element Mg, Element Si]",2,Mg8 Si14,0.0,0.23366074272727202,2.611217505315022
mp-1247873,As16S17,"[Element As, Element S]",2,As16 S17,1.9747000000000001,-0.141067393759468,2.417806194538653
mp-1247874,Ag2Se,"[Element Ag, Element Se]",2,Ag6 Se3,0.027700000000000002,2.246344798368053,0.633696838636708