material_id,formula_pretty,elements,nelements,composition,band_gap,formation_energy_per_atom,density
mp-1038869,MgCd3,"[Element Cd, Element Mg]",2,Mg1 Cd3,0.0,0.007717163749998,7.02827502832779
mp-1023924,MoS2,"[Element Mo, Element S]",2,Mo1 S2,1.6605999999999992,-0.951702631874998,1.746361466702365
mp-1023934,MoSe2,"[Element Mo, Element Se]",2,Mo1 Se2,1.4311,-0.7338328527083341,2.509830785156171
mp-1023517,RbMg15,"[Element Mg, Element Rb]",2,Rb1 Mg15,0.0,0.16890717671875002,1.849251266186037
mp-1025573,Te2W,"[Element Te, Element W]",2,Te6 W3,0.6644000000000001,-0.075949788888894,6.230776357783127
mp-1025874,MoS2,"[Element Mo, Element S]",2,Mo3 S6,1.5093,-0.9617292007638881,3.199447346194123
mp-1038873,Ce2Mg,"[Element Ce, Element Mg]",2,Ce4 Mg2,0.0,0.053270745555555006,6.570677391427479
mp-1023608,Mg15Ti,"[Element Mg, Element Ti]",2,Mg15 Ti1,0.0,0.075599065104166,1.913601950443865
mp-1038715,CeMg,"[Element Ce, Element Mg]",2,Ce1 Mg1,0.0,0.004797142500002001,5.547499839476751
mp-1025572,WSe2,"[Element Se, Element W]",2,W3 Se6,1.228899999999999,-0.598082526041666,6.004059777551505
mp-1038724,Ca2Mg,"[Element Ca, Element Mg]",2,Ca4 Mg2,0.0,0.052358445833333,1.59671589963353
mp-1023624,Mg15Co,"[Element Co, Element Mg]",2,Mg15 Co1,0.0,0.06563202109374901,2.055205409296723
mp-1023616,Mg15Zn,"[Element Mg, Element Zn]",2,Mg15 Zn1,0.0,0.0326503890625,2.053388689758775
mp-1023619,Mg15Zr,"[Element Mg, Element Zr]",2,Mg15 Zr1,0.0,0.046275855937500006,2.10779281634935
mp-1025571,WS2,"[Element S, Element W]",2,W3 S6,1.6345,-0.8784126318749971,4.934493154512965
mp-1023560,LaMg15,"[Element La, Element Mg]",2,La1 Mg15,0.0,0.044930300000000006,2.143048478778303
mp-1023935,Te2Mo,"[Element Mo, Element Te]",2,Te2 Mo1,1.07,-0.285760736666669,3.031148774972198
mp-1025799,MoSe2,"[Element Mo, Element Se]",2,Mo3 Se6,1.160299999999999,-0.7446227493750001,4.504439840043002
mp-1023622,Mg15Ni,"[Element Mg, Element Ni]",2,Mg15 Ni1,0.0,0.0473893378125,2.025216767189493
mp-1039011,MgCd5,"[Element Cd, Element Mg]",2,Mg1 Cd5,0.0,0.04651493583333301,7.590106774174292
mp-1039233,CaMg2,"[Element Ca, Element Mg]",2,Ca2 Mg4,0.0,0.08130118999999901,1.679889648967902
mp-1039355,CeMg2,"[Element Ce, Element Mg]",2,Ce2 Mg4,0.0,-0.006618294999997,4.394894011495482
mp-1038876,Ce3Mg,"[Element Ce, Element Mg]",2,Ce3 Mg1,0.0,0.06750581291666401,7.107545968722677
mp-1039019,MgAl,"[Element Al, Element Mg]",2,Mg1 Al1,0.0,0.05358336749999901,2.261472234474804
mp-1094450,Mg5Zn,"[Element Mg, Element Zn]",2,Mg5 Zn1,0.0,0.048721694166667,2.411182631863574
mp-1039026,Mg2Cd,"[Element Cd, Element Mg]",2,Mg4 Cd2,0.0,0.022799615000000002,3.9658377317591373
mp-1038976,CeMg5,"[Element Ce, Element Mg]",2,Ce1 Mg5,0.0,-0.0123979975,3.121107658783861
mp-1038961,CaMg,"[Element Ca, Element Mg]",2,Ca1 Mg1,0.0,0.047747976249999005,1.631883430354595
mp-1039117,CaMg3,"[Element Ca, Element Mg]",2,Ca1 Mg3,0.0,0.073858949846938,1.71333096503092
mp-1094341,MgTi,"[Element Mg, Element Ti]",2,Mg4 Ti4,0.0,0.20316495958333203,3.037416770255521
mp-1094580,LiMg,"[Element Li, Element Mg]",2,Li3 Mg3,0.0,-0.007743540833333001,1.202496228968571
mp-1080345,CeSe2,"[Element Ce, Element Se]",2,Ce4 Se8,0.254399999999999,-1.749852917395832,4.997414003765174
mp-1094321,SrMg5,"[Element Mg, Element Sr]",2,Sr1 Mg5,0.0,0.15481758520833402,2.102397366865528
mp-1094197,Mg2Sn,"[Element Mg, Element Sn]",2,Mg4 Sn2,0.0,-0.0031260283333320003,3.8411821238527653
mp-1094227,Mg5Sn,"[Element Mg, Element Sn]",2,Mg5 Sn1,0.0,0.027856478333333,2.8180180282355503
mp-1094323,SrMg2,"[Element Mg, Element Sr]",2,Sr2 Mg4,0.0,0.18154335999999902,2.127132143763032
mp-1094426,MgZn2,"[Element Mg, Element Zn]",2,Mg2 Zn4,0.0,0.024667935000000002,4.942253260703064
mp-1039142,Ca3Mg,"[Element Ca, Element Mg]",2,Ca3 Mg1,0.0,0.035933268125,1.58892108123717
mp-10628,TaS,"[Element S, Element Ta]",2,Ta1 S1,0.0,-0.9183016974166641,11.385284042141908
mp-1094286,SrMg,"[Element Mg, Element Sr]",2,Sr3 Mg3,0.0,0.13598229249999702,2.250884688967177
mp-1094441,YMg2,"[Element Mg, Element Y]",2,Y2 Mg4,0.0,0.07973183,2.863711283993414
mp-1039435,Ce5Mg,"[Element Ce, Element Mg]",2,Ce5 Mg1,0.0,0.070641850277776,7.6830165640777075
mp-1039443,MgCd,"[Element Cd, Element Mg]",2,Mg3 Cd3,0.0,0.041808304166667004,5.007588106881167
mp-1094303,Sr2Mg,"[Element Mg, Element Sr]",2,Sr4 Mg2,0.0,0.09481041333333401,2.429842388710933
mp-1094322,MgTi5,"[Element Mg, Element Ti]",2,Mg1 Ti5,0.0,0.066651698055556,4.031516728134054
mp-1094428,MgZn5,"[Element Mg, Element Zn]",2,Mg1 Zn5,0.0,0.039516844166666,5.990365195609467
mp-1094610,Mg2Ga,"[Element Ga, Element Mg]",2,Mg4 Ga2,0.0,-0.034564074166666,3.148036493338473
mp-1094627,MgGa,"[Element Ga, Element Mg]",2,Mg3 Ga3,0.0,9.518541666656925e-05,3.741186638346975
mp-1094581,LiMg2,"[Element Li, Element Mg]",2,Li2 Mg4,0.0,-0.017098953888888,1.434126832089159
mp-1038878,CeMg3,"[Element Ce, Element Mg]",2,Ce1 Mg3,0.0,-0.015369553749999001,3.769172206534771
mp-1039028,CaMg5,"[Element Ca, Element Mg]",2,Ca1 Mg5,0.0,0.092210116360544,1.728210029334715
mp-1039074,MgBi,"[Element Bi, Element Mg]",2,Mg1 Bi1,0.0,0.007874377499998001,6.887500884946844
mp-1094265,Mg5Ti,"[Element Mg, Element Ti]",2,Mg5 Ti1,0.0,0.109960011944444,2.195235315991223
mp-1094268,ZrSn,"[Element Sn, Element Zr]",2,Zr4 Sn4,0.0,-0.24173398208333502,7.473290892167831
mp-1094423,Y2Mg,"[Element Mg, Element Y]",2,Y4 Mg2,0.0,0.09779341833333301,3.679166904270088
mp-1094438,Mg2Zn,"[Element Mg, Element Zn]",2,Mg4 Zn2,0.0,0.019329846666666,3.135044513826291
mp-1094487,YMg,"[Element Mg, Element Y]",2,Y3 Mg3,0.0,0.06569896750000001,3.285882465736091
mp-1094507,Mg2Sb,"[Element Mg, Element Sb]",2,Mg4 Sb2,0.0,-0.047992083333332006,3.824729463492924
mp-1038915,CaZn,"[Element Ca, Element Zn]",2,Ca1 Zn1,0.0,-0.051328364999999,3.042285351323914
mp-1039385,Ca5Mg,"[Element Ca, Element Mg]",2,Ca5 Mg1,0.0,0.040664495833333,1.549520264802283
mp-1079260,InSe,"[Element In, Element Se]",2,In4 Se4,0.656099999999999,-0.6749296595312481,5.025959511862171
mp-1094245,MgSn5,"[Element Mg, Element Sn]",2,Mg1 Sn5,0.0,0.052742300000000006,6.363238886550718
mp-1094618,MgGa5,"[Element Ga, Element Mg]",2,Mg1 Ga5,0.0,0.014964184583333002,5.391325115448603
mp-1039434,Mg5Cd,"[Element Cd, Element Mg]",2,Mg5 Cd1,0.0,0.037973980833333004,2.842653141704469
mp-1039536,CaMg,"[Element Ca, Element Mg]",2,Ca3 Mg3,0.0,0.085299567916665,1.623058817264293
mp-1039055,Mg3Cd,"[Element Cd, Element Mg]",2,Mg3 Cd1,0.0,-0.002173779999999,3.49966296891864
mp-1039574,CeMg,"[Element Ce, Element Mg]",2,Ce3 Mg3,0.0,0.039332817500001005,5.6254221576142935
mp-1094590,Li5Mg,"[Element Li, Element Mg]",2,Li5 Mg1,0.0,-0.005842973055555,0.787484524930096
mp-1094314,Sr5Mg,"[Element Mg, Element Sr]",2,Sr5 Mg1,0.0,0.065103517500001,2.535162551244941
mp-1094588,LiMg5,"[Element Li, Element Mg]",2,Li1 Mg5,0.0,-0.010875251944444001,1.61840307232243
mp-1039175,MgCd2,"[Element Cd, Element Mg]",2,Mg2 Cd4,0.0,0.028375678333334,6.146594326837088
mp-1080279,CeSe2,"[Element Ce, Element Se]",2,Ce1 Se2,0.49720000000000003,-1.653368308229165,2.659365043877547
mp-1094611,MgGa2,"[Element Ga, Element Mg]",2,Mg2 Ga4,0.0,-0.014654326666666,4.535880303960445
mp-1063003,OsN2,"[Element N, Element Os]",2,Os1 N2,0.0,0.701259883333335,12.266267404913076
mp-1080325,CeSe2,"[Element Ce, Element Se]",2,Ce4 Se8,0.184699999999999,-1.660860845729165,5.076784836950908
mp-1094746,SrMg3,"[Element Mg, Element Sr]",2,Sr1 Mg3,0.0,0.16143069988636502,2.208819495653014
mp-1094800,MgSn,"[Element Mg, Element Sn]",2,Mg1 Sn1,0.0,-0.063347604999998,4.912201029354718
mp-1094665,LiMg3,"[Element Li, Element Mg]",2,Li1 Mg3,0.0,-0.020469882916666002,1.528315299602888
mp-1094789,Mg3Zn,"[Element Mg, Element Zn]",2,Mg3 Zn1,0.0,0.018148486250000002,2.844824931498218
mp-1094894,MgTi,"[Element Mg, Element Ti]",2,Mg1 Ti1,0.0,0.230238380833332,3.141164210091909
mp-1094709,Mg3Sb,"[Element Mg, Element Sb]",2,Mg3 Sb1,0.0,-0.010773136249999002,3.327417152642745
mp-1094631,Mg5Ga,"[Element Ga, Element Mg]",2,Mg5 Ga1,0.0,0.017090152916666,2.40455878025646
mp-1094688,Sr3Mg,"[Element Mg, Element Sr]",2,Sr3 Mg1,0.0,0.073441159583332,2.51330525131901
mp-1094725,MgSn3,"[Element Mg, Element Sn]",2,Mg1 Sn3,0.0,0.0071326849999990005,6.145924262849424
mp-1094782,MgZn,"[Element Mg, Element Zn]",2,Mg1 Zn1,0.0,0.0022169375,4.032128647314675
mp-1094850,MgGa,"[Element Ga, Element Mg]",2,Mg1 Ga1,0.0,-0.07840545125000001,4.070719844385482
mp-1094854,Mg3Ga,"[Element Ga, Element Mg]",2,Mg3 Ga1,0.0,-0.012984855624999,2.781425450291411
mp-1097924,MgSb,"[Element Mg, Element Sb]",2,Mg1 Sb1,0.0,-0.155668817499999,4.725183454581773
mp-1183252,BIr,"[Element B, Element Ir]",2,B1 Ir1,0.0,-0.21504744125000003,15.562165595548212
mp-1183293,BaPm,"[Element Ba, Element Pm]",2,Ba1 Pm1,0.0,0.248259036249999,5.272485884048976
mp-1183602,CaLa,"[Element Ca, Element La]",2,Ca1 La1,0.0,0.075663837499998,3.818638894867969
mp-11807,LiPt,"[Element Li, Element Pt]",2,Li1 Pt1,0.0,-0.6548987983333311,12.315461355315577
mp-1183396,BaTh,"[Element Ba, Element Th]",2,Ba1 Th1,0.0,0.443822305000002,7.631182131128431
mp-1183726,CdSn,"[Element Cd, Element Sn]",2,Cd1 Sn1,0.0,0.16822889499999802,7.629369823909802
mp-1183157,AcTh,"[Element Ac, Element Th]",2,Ac1 Th1,0.0,0.16787586374999802,10.154090026482757
mp-1183209,AgPt,"[Element Ag, Element Pt]",2,Ag1 Pt1,0.0,-0.0823932825,15.640596936006565
mp-1183384,BaTb,"[Element Ba, Element Tb]",2,Ba1 Tb1,0.0,0.303157636666667,5.788128281835355
mp-1183669,CdIn,"[Element Cd, Element In]",2,Cd1 In1,0.0,0.059352905000000004,7.655549537533509
mp-1094920,MgZn3,"[Element Mg, Element Zn]",2,Mg1 Zn3,0.0,0.019152868750000003,5.434327624389002
mp-1183040,ZrSe,"[Element Se, Element Zr]",2,Zr1 Se1,0.0,-1.5571522870312502,7.025813254657892
mp-1094777,Y3Mg,"[Element Mg, Element Y]",2,Y3 Mg1,0.0,0.08550332625000001,3.8895828081862183
mp-1094982,LiMg,"[Element Li, Element Mg]",2,Li1 Mg1,0.0,-0.018473590833333,1.2337755912714061
mp-1183229,AgIr,"[Element Ag, Element Ir]",2,Ag1 Ir1,0.0,0.356743556666664,15.46694780888715
mp-1094774,SrMg,"[Element Mg, Element Sr]",2,Sr1 Mg1,0.0,0.13327953083333102,2.338906684932364
mp-1094865,MgTi3,"[Element Mg, Element Ti]",2,Mg1 Ti3,0.0,0.095791223749999,3.783264125584217
mp-1094750,YMg3,"[Element Mg, Element Y]",2,Y1 Mg3,0.0,0.07195259875,2.593670552275336
mp-1094795,Mg3Sn,"[Element Mg, Element Sn]",2,Mg3 Sn1,0.0,0.005195075,3.323516634660583
mp-1104403,C3N4,"[Element C, Element N]",2,C6 N8,0.8366,0.111792011785713,1.912399048360565
mp-1183572,CaI,"[Element Ca, Element I]",2,Ca1 I1,0.0,-1.190402052499999,4.068657795996525
mp-1183297,BaPr,"[Element Ba, Element Pr]",2,Ba1 Pr1,0.0,0.22119467416666702,5.058854774642855
mp-1094971,MgGa3,"[Element Ga, Element Mg]",2,Mg1 Ga3,0.0,-0.001832039374999,4.8943446717452
mp-1183227,AgAu,"[Element Ag, Element Au]",2,Ag1 Au1,0.0,-0.046850372500003006,14.444606395462564
mp-1183233,AgRh,"[Element Ag, Element Rh]",2,Ag1 Rh1,0.0,0.263305416666668,10.893824043721382
mp-1183444,CaBr,"[Element Br, Element Ca]",2,Ca1 Br1,0.0,-1.552205552499999,3.454055387563762
mp-1183691,CrN,"[Element Cr, Element N]",2,Cr1 N1,0.0,-0.504793179374999,6.874418675392094
mp-1183049,AcLa,"[Element Ac, Element La]",2,Ac1 La1,0.0,0.032033103749995004,7.173638101326436
mp-1183222,AgPd,"[Element Ag, Element Pd]",2,Ag1 Pd1,0.0,-0.065638167499997,11.088973890324937
mp-1183294,BaDy,"[Element Ba, Element Dy]",2,Ba1 Dy1,0.0,0.319307454166668,5.891331301919601
mp-1094882,MgZr,"[Element Mg, Element Zr]",2,Mg1 Zr1,0.0,0.078277812499999,4.282495518215639
mp-1102379,ReSe2,"[Element Re, Element Se]",2,Re4 Se8,0.0,-0.162505086874996,8.445299726246962
mp-1184069,CuNi,"[Element Cu, Element Ni]",2,Cu1 Ni1,0.0,0.059683559999999004,9.358309780199303
mp-1183921,EuEr,"[Element Er, Element Eu]",2,Eu1 Er1,0.0,0.10107410999999901,7.547143497996163
mp-1184297,ErMg5,"[Element Er, Element Mg]",2,Er1 Mg5,0.0,0.058032412500000005,3.263315098095581
mp-1185249,LiU,"[Element Li, Element U]",2,Li1 U1,0.0,0.340359908333333,10.309601263736626
mp-1184337,BaMg149,"[Element Ba, Element Mg]",2,Ba1 Mg149,0.362199999999999,0.011255623300000002,1.78232835937257
mp-1184763,GdZr,"[Element Gd, Element Zr]",2,Gd1 Zr1,0.0,0.11771647500000101,7.594651575784616
mp-1183965,CsEu,"[Element Cs, Element Eu]",2,Cs1 Eu1,0.0,0.29926708603448304,3.421968336793381
mp-1185056,KSm,"[Element K, Element Sm]",2,K1 Sm1,0.0,0.46913657099999906,3.731665582664131
mp-1184449,CaMg149,"[Element Ca, Element Mg]",2,Ca1 Mg149,0.0,0.008488082499999001,1.797248003164255
mp-1184537,DyMg149,"[Element Dy, Element Mg]",2,Dy1 Mg149,0.2636,0.004424693488889,1.809298599138633
mp-1184549,HfTl,"[Element Hf, Element Tl]",2,Hf1 Tl1,0.0,0.11181235833332401,13.5360283434404
mp-1185049,KPm,"[Element K, Element Pm]",2,K1 Pm1,0.0,0.45629870975000103,3.543093076943772
mp-1185083,KY,"[Element K, Element Y]",2,K1 Y1,0.0,0.499548985166667,2.543103546627739
mp-1183937,CsHo,"[Element Cs, Element Ho]",2,Cs1 Ho1,0.0,0.756246546034482,5.310865732196849
mp-1185250,ErMg149,"[Element Er, Element Mg]",2,Er1 Mg149,0.2856,0.004227170033333,1.8268885314111452
mp-1184123,DyZr,"[Element Dy, Element Zr]",2,Dy1 Zr1,0.0,0.104326209999999,7.775290513498517
mp-1183835,DyPa,"[Element Dy, Element Pa]",2,Dy1 Pa1,0.0,0.194081465000003,11.959828860313685
mp-1184927,HoNp,"[Element Ho, Element Np]",2,Ho1 Np1,0.0,0.8873930856249991,12.20728432461233
mp-1184885,HoZr,"[Element Ho, Element Zr]",2,Ho1 Zr1,0.0,0.08993039500000301,7.900054297850396
mp-1185036,KNd,"[Element K, Element Nd]",2,K1 Nd1,0.0,0.43882256975000106,3.500494144466626
mp-1184231,AcMg149,"[Element Ac, Element Mg]",2,Ac1 Mg149,0.21680000000000002,0.009979247549999001,1.829015046859574
mp-1185153,KPt,"[Element K, Element Pt]",2,K1 Pt1,0.0,0.25031946912499903,9.32765617321921
mp-1184350,ErU,"[Element Er, Element U]",2,Er1 U1,0.0,0.42900957999999806,13.225683724711425
mp-1184509,GdTe,"[Element Gd, Element Te]",2,Gd1 Te1,0.0,-1.601623279999998,7.756171250348898
mp-1185271,LiPa,"[Element Li, Element Pa]",2,Li1 Pa1,0.0,0.279126033333334,8.711347113955767
mp-1185299,EuMg149,"[Element Eu, Element Mg]",2,Eu1 Mg149,0.023000000000000003,0.005561111200000001,1.8055811284900112
mp-1185534,HoMg149,"[Element Ho, Element Mg]",2,Ho1 Mg149,0.27990000000000004,0.004385591333333,1.80576947574916
mp-1185555,Mg149Ru,"[Element Mg, Element Ru]",2,Mg149 Ru1,0.065399999999999,0.006134279833333,1.8006735249295431
mp-1185504,LuTe,"[Element Lu, Element Te]",2,Lu1 Te1,0.0,-1.340311561666668,9.113526923372739
mp-1185556,Mg149H,"[Element H, Element Mg]",2,Mg149 H1,0.0,0.015092000625000001,1.745726517207268
mp-1185402,LiMn,"[Element Li, Element Mn]",2,Li1 Mn1,0.0,0.376647249367815,3.9231260695105563
mp-1185513,HfMg149,"[Element Hf, Element Mg]",2,Hf1 Mg149,0.13689999999999902,0.010514266100000001,1.836793837246061
mp-1185557,Mg149Bi,"[Element Bi, Element Mg]",2,Mg149 Bi1,0.2936,0.0025349449666670003,1.8362985156230591
mp-1185549,Mg149Br,"[Element Br, Element Mg]",2,Mg149 Br1,0.0020999999999990002,0.00035978126666600004,1.797282388494669
mp-1185565,Mg149Mo,"[Element Mg, Element Mo]",2,Mg149 Mo1,0.150399999999999,0.015990733166667,1.8063209445428212
mp-1185567,CsCe,"[Element Ce, Element Cs]",2,Cs1 Ce1,0.0,0.836976778534481,5.006523260073462
mp-1185568,Mg149Pt,"[Element Mg, Element Pt]",2,Mg149 Pt1,0.018000000000000002,-0.006860485099999001,1.8424841092571271
mp-1185573,Mg149Au,"[Element Au, Element Mg]",2,Mg149 Au1,0.561299999999999,-0.004093147366666001,1.865784395991928
mp-680196,CdI2,"[Element Cd, Element I]",2,Cd29 I58,2.3569,-0.824632909310344,5.113881938730125
mp-684977,Zr27O49,"[Element O, Element Zr]",2,Zr27 O49,0.0,-3.578150040592106,5.866380137850064
mp-684676,Al2S3,"[Element Al, Element S]",2,Al48 S72,0.0,-1.100135145354166,2.64061046162262
mp-995181,SnGe,"[Element Ge, Element Sn]",2,Sn1 Ge1,0.20869999999999903,0.49202182999999805,1.5309411599433962
mp-2025375,Tl2S,"[Element S, Element Tl]",2,Tl6 S3,1.132199999999999,-0.423817146493054,7.94216222013625
mp-2749854,US2,"[Element S, Element U]",2,U3 S6,0.0,-1.7751861957638901,8.061733502135075
mp-1078313,Bi2Pt,"[Element Bi, Element Pt]",2,Bi6 Pt3,0.0,-0.234871187777786,12.677535591313923
mp-567701,Ba21Al40,"[Element Al, Element Ba]",2,Ba21 Al40,0.0,-0.24333117606557403,3.874875107971079
mp-597,TiNi,"[Element Ni, Element Ti]",2,Ti9 Ni9,0.0,-0.37315426499999904,6.487972611986743
mp-16886,CdAu,"[Element Au, Element Cd]",2,Cd9 Au9,0.0,-0.211002030555549,13.560121281052838
mp-755169,Tl6S,"[Element S, Element Tl]",2,Tl6 S1,0.0,-0.12267292821429202,9.297122853209194
mp-1213655,GaO5,"[Element Ga, Element O]",2,Ga8 O40,0.0,0.143413440624999,3.110906238877836
mp-9410,C3N4,"[Element C, Element N]",2,C12 N16,3.775,0.29864524642857104,3.510074215761665
mp-1178247,FeO,"[Element Fe, Element O]",2,Fe12 O12,2.0878,-1.370251641249999,5.563370810704058
mp-1015065,Cr3N4,"[Element Cr, Element N]",2,Cr12 N16,0.0,-0.37600686232143005,4.151130651392251
mp-568867,Si3N4,"[Element N, Element Si]",2,Si12 N16,2.3538,-0.6140544882142871,3.130460983192679
mp-1080190,Ti3N4,"[Element N, Element Ti]",2,Ti12 N16,1.7589000000000001,-1.54274134160714,3.319109099221103
mp-1014369,Cr3N4,"[Element Cr, Element N]",2,Cr12 N16,0.0,-0.5244397908928601,4.03392315979555
mp-2245,Si3N4,"[Element N, Element Si]",2,Si12 N16,4.654700000000001,-1.317403839285715,3.186358166257212
mp-651332,SeBr4,"[Element Br, Element Se]",2,Se16 Br64,2.2169,-0.6701583147187501,3.351731375743245
mp-1105780,Bi2O3,"[Element Bi, Element O]",2,Bi8 O12,1.487499999999999,-1.603110455500007,9.809987387003124
mp-603694,Si3N4,"[Element N, Element Si]",2,Si12 N16,0.0,-0.57720187,3.21167346124912
mp-672289,Ge3N4,"[Element Ge, Element N]",2,Ge12 N16,2.064,-0.192592425714287,5.225428290699124
mp-764115,V3O7,"[Element O, Element V]",2,V18 O42,1.160299999999999,-2.2642393215,2.613221856416101
mp-1216517,V3B100,"[Element B, Element V]",2,V3 B100,0.0,-0.033709181812295,2.614027729580684
mp-1104513,C11N4,"[Element C, Element N]",2,C11 N4,0.0,1.364933617666667,3.413596023441687
mp-1080242,Pb3N4,"[Element N, Element Pb]",2,Pb3 N4,0.0,0.481050177142857,7.922209066747599
mp-11342,GaSe,"[Element Ga, Element Se]",2,Ga2 Se2,1.2233,-0.688569757031249,4.5984419686893645
mp-1040834,WO2,"[Element O, Element W]",2,W4 O8,1.4003,-1.502359474999998,7.98891782774031
mp-1044722,BiO2,"[Element Bi, Element O]",2,Bi4 O8,0.0,-1.388180778333334,9.19389532514365
mp-10188,Fe3S4,"[Element Fe, Element S]",2,Fe3 S4,0.0,-0.424486235714284,4.743995205511187
mp-1044721,SnO2,"[Element O, Element Sn]",2,Sn4 O8,1.601299999999999,-1.9500562008333322,6.137227802554503
mp-10014,TaS2,"[Element S, Element Ta]",2,Ta1 S2,0.0,-1.381073649111107,6.665802005732892
mp-1070456,Be3N2,"[Element Be, Element N]",2,Be3 N2,2.7645,-1.16403933,2.690088422531669
mp-1091371,Bi2O3,"[Element Bi, Element O]",2,Bi4 O6,2.4257,-1.5400619655000072,8.470800478536733
mp-11713,SiC,"[Element C, Element Si]",2,Si5 C5,1.9535,-0.30585507849999904,3.227650770425009
mp-1057015,PbS,"[Element Pb, Element S]",2,Pb1 S1,0.5555,-0.782691748749998,7.444189541445099
mp-1044716,SbO2,"[Element O, Element Sb]",2,Sb4 O8,0.0,-1.521603993333332,4.491796627722597
mp-1066400,NaN3,"[Element N, Element Na]",2,Na1 N3,4.275,-0.16403737406249902,1.7411106447155071
mp-1060884,UCd,"[Element Cd, Element U]",2,U1 Cd1,0.0,0.410281754999999,12.364837662712269
mp-1079661,BC7,"[Element B, Element C]",2,B1 C7,0.0,0.22525988075520803,3.317503424165176
mp-1094692,Mg16Al13,"[Element Al, Element Mg]",2,Mg16 Al13,0.0,-0.0020617610344820002,2.132222732556005
mp-1011374,CeSe2,"[Element Ce, Element Se]",2,Ce1 Se2,0.12509999999999902,-1.656205494895831,5.360001121444853
mp-1063678,H3S,"[Element H, Element S]",2,H3 S1,0.0,0.409454683984375,1.809255294135074
mp-1060143,SrU,"[Element Sr, Element U]",2,Sr1 U1,0.0,1.495801546666669,4.6302271517727505
mp-1080305,CeSe2,"[Element Ce, Element Se]",2,Ce2 Se4,0.36210000000000003,-1.748075474895832,4.927351846972573
mp-1199343,ZnS,"[Element S, Element Zn]",2,Zn18 S18,2.0023,-0.950462961207838,3.9784254062085243