material_id,formula_pretty,elements,nelements,composition,band_gap,formation_energy_per_atom,density
mp-775907,Y2O3,"[Element O, Element Y]",2,Y12 O18,3.7011000000000003,-3.912033124499999,5.363418063602864
mp-7493,CaSb2,"[Element Ca, Element Sb]",2,Ca2 Sb4,0.0,-0.740698304999996,5.3544117263486495
mp-776630,V2O3,"[Element O, Element V]",2,V12 O18,0.945299999999999,-2.473903667000001,4.740151748367431
mp-9429,USe3,"[Element Se, Element U]",2,U2 Se6,0.0,-1.286306686757811,7.371130044306471
mp-979261,TiPd,"[Element Pd, Element Ti]",2,Ti2 Pd2,0.0,-0.542537950833331,8.277578186965673
mp-870306,V6O13,"[Element O, Element V]",2,V12 O26,0.0,-2.393452459736842,3.7046699847148963
mp-878,Ho2S3,"[Element Ho, Element S]",2,Ho12 S18,1.4612999999999992,-2.376410549020833,6.046408249359246
mp-777514,Y2O3,"[Element O, Element Y]",2,Y8 O12,2.8013999999999992,-3.8636456055,5.312041951899708
mp-826026,WO3,"[Element O, Element W]",2,W4 O12,1.3702,-2.183644125625,6.638272403899952
mp-9092,Er2S3,"[Element Er, Element S]",2,Er8 S12,1.1633,-2.359309233020832,6.38615913560405
mp-7332,NdP5,"[Element Nd, Element P]",2,Nd2 P10,0.0,-0.6451083537301581,3.842260282585458
mp-9848,PrP5,"[Element P, Element Pr]",2,Pr2 P10,0.0,-0.6409127319246031,3.748920631054796
mp-9849,SmP5,"[Element P, Element Sm]",2,Sm2 P10,0.009399999999999001,-0.6452046758134901,4.011907072014017
mp-782035,Al2O3,"[Element Al, Element O]",2,Al12 O18,4.978199999999999,-3.336473075333334,3.6316362464047662
mp-849071,Cr3S4,"[Element Cr, Element S]",2,Cr6 S8,0.0,-0.92470213642857,4.155636022948302
mp-7459,Te2Mo,"[Element Mo, Element Te]",2,Te8 Mo4,0.0,-0.293482694999999,7.079496030463364
mp-9850,DyP5,"[Element Dy, Element P]",2,Dy2 P10,0.0937,-0.6370583499801581,4.331524379926144
mp-978992,SnH4,"[Element H, Element Sn]",2,Sn2 H8,0.0,0.199402974000003,3.491530628115621
mp-9922,HfS3,"[Element Hf, Element S]",2,Hf2 S6,1.1326,-1.373804485859373,5.431896671846112
mp-9921,ZrS3,"[Element S, Element Zr]",2,Zr2 S6,1.113299999999999,-1.574733515624998,3.608861478892194
mp-9851,HoP5,"[Element Ho, Element P]",2,Ho2 P10,0.1063,-0.630045229146825,4.396580194129317
mp-9852,TmP5,"[Element P, Element Tm]",2,Tm2 P10,0.1259,-0.616732226646824,4.517564835122869
mp-9853,LuP5,"[Element Lu, Element P]",2,Lu2 P10,0.13670000000000002,-0.597845676091267,4.6623817790919215
mp-9983,Ta2Se3,"[Element Se, Element Ta]",2,Ta4 Se6,0.0,-0.8427346813708311,9.756811066270284
mp-9854,YP5,"[Element P, Element Y]",2,Y2 P10,0.1371,-0.6391986149801591,3.308440039622174
mp-9920,TiS3,"[Element S, Element Ti]",2,Ti2 S6,0.22610000000000002,-1.341742255208332,3.12285272805444
mp-995200,HC3,"[Element C, Element H]",2,H2 C6,0.0,0.057810449531247005,1.681455209369799
mp-1203368,Zn3As2,"[Element As, Element Zn]",2,Zn48 As32,0.146399999999999,-0.1413730115,5.387709499755874
mp-29292,B10H13,"[Element B, Element H]",2,B80 H104,3.344699999999999,-0.09124897069293501,0.9206604319943801
mp-1198478,BrN3,"[Element Br, Element N]",2,Br8 N24,2.0113,0.490177984687499,1.996677895603042
mp-1078123,Ti4H3,"[Element H, Element Ti]",2,Ti4 H3,0.0,-0.30991105613095205,4.148815127300224
mp-615138,MnF2,"[Element F, Element Mn]",2,Mn4 F8,3.283,-2.912308335977011,4.202839577300487
mp-1095024,Ti4H5,"[Element H, Element Ti]",2,Ti4 H5,0.0,-0.441571064490741,4.019236427606892
mp-1209822,Nd4S7,"[Element Nd, Element S]",2,Nd4 S7,0.0,-2.124232117244317,5.223234367576034
mp-1104073,C11N4,"[Element C, Element N]",2,C11 N4,2.434899999999999,0.310883527166665,3.56151693985609
mp-705284,W5O14,"[Element O, Element W]",2,W40 O112,0.0,-1.395467416578946,5.274735282253553
mp-239,BaS3,"[Element Ba, Element S]",2,Ba2 S6,1.391299999999999,-1.4342925506249982,3.80619643432229
mp-1019086,CN2,"[Element C, Element N]",2,C2 N4,4.660499999999999,0.373985822499998,2.550627783372581
mp-1281333,CrO2,"[Element Cr, Element O]",2,Cr4 O8,0.014699999999999,-2.042247830833334,4.6583668988055695
mp-2235359,WO3,"[Element O, Element W]",2,W4 O12,1.3106,-2.184491169374999,6.657391970936978
mp-733506,WO3,"[Element O, Element W]",2,W10 O30,1.653,-2.181085689749999,6.705678238155663
mp-8234,BaTe3,"[Element Ba, Element Te]",2,Ba2 Te6,0.8198000000000001,-1.201598257499998,5.902636645603349
mp-20683,Cu3Se2,"[Element Cu, Element Se]",2,Cu6 Se4,0.0,-0.189889615625,6.701255502681932
mp-1546836,Ca16Sb11,"[Element Ca, Element Sb]",2,Ca32 Sb22,0.0,-1.203563821296296,3.844232525006452
mp-31284,NaSn5,"[Element Na, Element Sn]",2,Na2 Sn10,0.0,-0.071925608333332,5.6950615384750005
mp-559122,WO3,"[Element O, Element W]",2,W4 O12,1.2542,-2.184233883125,6.8803860573082884
mp-7548,BaSe3,"[Element Ba, Element Se]",2,Ba2 Se6,0.926,-1.391277738007811,5.301940277908506
mp-1195106,H8C5,"[Element C, Element H]",2,H32 C20,4.9384,-0.14022324980769402,1.029969321623781
mp-7818,Pd4Se,"[Element Pd, Element Se]",2,Pd8 Se2,0.0,-0.16782736481249802,10.564835863171924
mp-1198229,Ho15C19,"[Element C, Element Ho]",2,Ho30 C38,0.0,-0.31712299176470204,8.820693124139726
mp-27519,SeO3,"[Element O, Element Se]",2,Se8 O24,2.4312,-0.874017667773437,3.445588054679223
mp-23195,Bi2O3,"[Element Bi, Element O]",2,Bi8 O12,1.6582,-1.622255527000005,9.025910157664597
mp-560152,SiO2,"[Element O, Element Si]",2,Si16 O32,5.6007,-3.169205561041666,2.287444628052826
mp-7819,Pd4S,"[Element Pd, Element S]",2,Pd8 S2,0.0,-0.20709210956249802,10.165853472077288
mp-1201082,Y15C19,"[Element C, Element Y]",2,Y30 C38,0.0,-0.28707101367647003,4.970138910566863
mp-28056,P2Rh3,"[Element P, Element Rh]",2,P2 Rh3,0.0,-0.737960545190475,8.854702789894114
mp-1017551,Bi2O3,"[Element Bi, Element O]",2,Bi2 O3,0.100299999999999,-1.473087155000001,8.647050992993492
mp-1223904,Ho2O3,"[Element Ho, Element O]",2,Ho2 O3,1.517,-3.764580618999998,8.013094794738013
mp-1217673,Tb2O3,"[Element O, Element Tb]",2,Tb2 O3,1.5609000000000002,-3.737620113666666,7.494560040783008
mp-568838,Hg4I7,"[Element Hg, Element I]",2,Hg4 I7,0.0,-0.46538392318182004,4.712348631826353
mp-1219167,Sm2O3,"[Element O, Element Sm]",2,Sm2 O3,1.7192,-3.646134319,6.691225869096116
mp-1225275,Dy2O3,"[Element Dy, Element O]",2,Dy2 O3,1.5409000000000002,-3.7511839256666653,7.7685927546234375
mp-632311,Ta2H,"[Element H, Element Ta]",2,Ta2 H1,0.0,-0.136438394472222,15.537626360823435
mp-600001,SiO2,"[Element O, Element Si]",2,Si5 O10,5.7968,-3.236209193666667,1.6270879414514412
mp-1225731,Cu3S2,"[Element Cu, Element S]",2,Cu3 S2,0.0,-0.15241297145833202,5.912463467460496
mp-1224674,Gd2O3,"[Element Gd, Element O]",2,Gd2 O3,1.325,-3.688386687,7.244282957055915
mp-1216050,Y2O3,"[Element O, Element Y]",2,Y2 O3,1.5869,-3.690360309,4.65761583661604
mp-850099,CuS2,"[Element Cu, Element S]",2,Cu1 S2,0.0,0.351664054618055,4.035024733365863
mp-1224223,In11S16,"[Element In, Element S]",2,In11 S16,0.0,-0.722336423518518,4.5461063149653125
mp-1217048,Ti8N5,"[Element N, Element Ti]",2,Ti8 N5,0.0,-1.577474163621793,4.989075338097825
mp-1078935,BC7,"[Element B, Element C]",2,B1 C7,0.0,0.194974554505208,3.31499056606563
mp-1217105,Ti3O8,"[Element O, Element Ti]",2,Ti3 O8,0.0,-2.492625366363636,3.277399212064719
mp-1225322,Dy4Te7,"[Element Dy, Element Te]",2,Dy4 Te7,0.0,-1.452791143636364,7.67013934211638
mp-2205701,TeI7,"[Element I, Element Te]",2,Te2 I14,0.0,0.0667532671875,3.762977389607787
mp-570922,MgCl2,"[Element Cl, Element Mg]",2,Mg1 Cl2,4.9801,-2.171698671666667,1.8039842397632282
mp-1181940,CdCl2,"[Element Cd, Element Cl]",2,Cd1 Cl2,3.1363,-1.178925751666668,3.425154835992163
mp-1222421,Li3N2,"[Element Li, Element N]",2,Li3 N2,0.0,0.284854891749999,1.396533825312444
mp-33154,AgI2,"[Element Ag, Element I]",2,Ag1 I2,0.0,-0.299594967222221,5.145414428420103
mp-1219669,Pu2O3,"[Element O, Element Pu]",2,Pu2 O3,0.0,-3.2036705984999942,11.0299526250378
mp-1225508,Er2Se3,"[Element Er, Element Se]",2,Er2 Se3,0.232499999999999,-2.099129478770831,7.703001499386011
mp-16609,Si3Os2,"[Element Os, Element Si]",2,Si12 Os8,1.105499999999999,-0.43149757600000305,10.988693496445043
mp-1189780,Os2C3,"[Element C, Element Os]",2,Os8 C12,0.23749999999999802,1.224335100499991,13.888955105762511
mp-1197234,Ir4C5,"[Element C, Element Ir]",2,Ir16 C20,0.5691,1.032691115833336,14.367747493817387
mp-1207561,Zr8Bi13,"[Element Bi, Element Zr]",2,Zr32 Bi52,0.0,-0.30391999392857305,10.12936359486164
mp-1201064,Re4Ge7,"[Element Ge, Element Re]",2,Re16 Ge28,0.6991,0.040247733409097,11.962357866004078
mp-1203760,Si7Tc4,"[Element Si, Element Tc]",2,Si28 Tc16,1.0648,-0.553621656590911,6.574545046632411
mp-30665,Ga17Rh10,"[Element Ga, Element Rh]",2,Ga68 Rh40,0.0,-0.5984924679629631,8.819942408395255
mp-561291,SiO2,"[Element O, Element Si]",2,Si8 O16,5.2477,-3.121077801666666,2.25065037988681
mp-680677,Sn3Ru2,"[Element Ru, Element Sn]",2,Sn12 Ru8,0.0,-0.1499195775,9.654020004489428
mp-680339,Mn4Si7,"[Element Mn, Element Si]",2,Mn16 Si28,0.755599999999999,-0.28327900617555,5.415903421974765
mp-1105498,Co2Si3,"[Element Co, Element Si]",2,Co8 Si12,0.0,-0.241066568,5.47766023598664
mp-510032,Ge3Os2,"[Element Ge, Element Os]",2,Ge12 Os8,1.1521,-0.07191610149999901,12.797519397605598
mp-706531,Ge3Ru2,"[Element Ge, Element Ru]",2,Ge12 Ru8,0.3435,-0.327248542999998,9.12872694008447
mp-541844,Ge5Ir4,"[Element Ge, Element Ir]",2,Ge20 Ir16,0.1279,-0.37851821,12.826625454437714
mp-20191,Si3Ru2,"[Element Ru, Element Si]",2,Si12 Ru8,0.377400000000001,-0.592158751000002,6.915456485221688
mp-1190410,PrSe2,"[Element Pr, Element Se]",2,Pr8 Se16,0.0,-1.8693756853472192,6.512636846321553
mp-1227527,Bi4O7,"[Element Bi, Element O]",2,Bi8 O14,0.0,-1.410071575909091,9.081096658999247
mp-637599,Bi2O3,"[Element Bi, Element O]",2,Bi8 O12,0.0,-1.283646479500001,8.831545714247508
mp-1080308,CeSe2,"[Element Ce, Element Se]",2,Ce8 Se16,0.9095000000000001,-1.407764969062499,2.57423586097565
mp-1181401,Ga5Ir3,"[Element Ga, Element Ir]",2,Ga20 Ir12,0.0,-0.327689373750004,11.741150263907826
mp-1207419,Zr3Bi5,"[Element Bi, Element Zr]",2,Zr12 Bi20,0.0,-0.296630671562501,10.333298636030344
mp-1097859,Mn3Ge5,"[Element Ge, Element Mn]",2,Mn12 Ge20,0.0,-0.078274086724138,7.7941952189602794
mp-1212680,Ga5Ir3,"[Element Ga, Element Ir]",2,Ga20 Ir12,0.0,-0.536555426875004,12.708174219294857
mp-1077536,ZnSb2,"[Element Sb, Element Zn]",2,Zn2 Sb4,0.0,0.10039415500000101,6.808573023631201
mp-558200,SiO2,"[Element O, Element Si]",2,Si8 O16,5.642899999999999,-3.20021207375,2.413310250887983
mp-672326,In3Ru,"[Element In, Element Ru]",2,In12 Ru4,0.20950000000000002,-0.23566952000000102,7.998560893480224
mp-569901,Ge23Mo13,"[Element Ge, Element Mo]",2,Ge92 Mo52,0.0,-0.11387841555555901,8.304041787050103
mp-579963,Cr11Ge19,"[Element Cr, Element Ge]",2,Cr44 Ge76,0.0,0.043538882333333,7.352498703367167
mp-680383,V17Ge31,"[Element Ge, Element V]",2,V68 Ge124,0.0,-0.200119374947917,7.019449982901359
mp-567968,Mn11Si19,"[Element Mn, Element Si]",2,Mn44 Si76,0.8909,-0.27825740848546704,5.253111010460837
mp-1101854,LiB11,"[Element B, Element Li]",2,Li1 B11,0.0,0.735385138958333,2.507896908666866
mp-1057216,LiS,"[Element Li, Element S]",2,Li1 S1,0.0,-0.8758943804166651,1.9329070331284801
mp-32880,CuBr,"[Element Br, Element Cu]",2,Cu1 Br1,0.4449,-0.5165704024999991,5.134752715060553
mp-632219,ZrH,"[Element H, Element Zr]",2,Zr1 H1,0.0,-0.39525807562500104,5.657335180940566
mp-1103120,LiB11,"[Element B, Element Li]",2,Li1 B11,0.0,0.6535928172916651,2.528226080525894
mp-1077125,BC5,"[Element B, Element C]",2,B1 C5,0.0,0.22311997184027701,3.258312242793307
mp-1218964,SnBi,"[Element Bi, Element Sn]",2,Sn1 Bi1,0.0,0.134028237499997,8.771866981722043
mp-2362466,GaAs,"[Element As, Element Ga]",2,Ga1 As1,0.0,-0.093578181249999,6.211213532077011
mp-567752,Cs2In3,"[Element Cs, Element In]",2,Cs4 In6,0.0,-0.296690023000002,4.971027061670523
mp-1224785,GaSb,"[Element Ga, Element Sb]",2,Ga1 Sb1,0.0,-0.044525405000001,6.591432290455336
mp-31493,RbGa3,"[Element Ga, Element Rb]",2,Rb3 Ga9,0.147199999999999,-0.16880684916666602,4.93402474665607
mp-30589,LaCu4,"[Element Cu, Element La]",2,La9 Cu36,0.0,-0.144846165,7.897738698316774
mp-644923,SiO2,"[Element O, Element Si]",2,Si48 O96,5.72,-3.255982241458333,1.699283382944712
mp-1009818,CN2,"[Element C, Element N]",2,C1 N2,0.13470000000000001,0.730336610833331,3.639646195855029
mp-1198372,Nb16Bi47,"[Element Bi, Element Nb]",2,Nb16 Bi47,0.0,0.25829998428571305,9.98130140100278
mp-1223902,HgTe,"[Element Hg, Element Te]",2,Hg1 Te1,0.0,-0.0039004887499980005,9.419059751978796
mp-181,KGa3,"[Element Ga, Element K]",2,K3 Ga9,0.21629999999999902,-0.1726160249375,4.328097253195336
mp-1223637,InSb,"[Element In, Element Sb]",2,In1 Sb1,0.0,-0.122108374999999,6.921276258509032
mp-1228806,AlSb,"[Element Al, Element Sb]",2,Al1 Sb1,0.0,-0.014394015000000001,5.225053136605902
mp-1226722,CdTe,"[Element Cd, Element Te]",2,Cd1 Te1,0.0,-0.19667151000000102,6.99492973506814
mp-600067,SiO2,"[Element O, Element Si]",2,Si28 O56,5.8489,-3.239390451785713,1.372429634637766
mp-574338,CsGa3,"[Element Cs, Element Ga]",2,Cs3 Ga9,0.0,-0.215087933333334,5.4473923530943225
mp-542339,CsIn3,"[Element Cs, Element In]",2,Cs3 In9,0.0,-0.280249818333331,5.510060029199977
mp-1220609,NbCr2,"[Element Cr, Element Nb]",2,Nb8 Cr16,0.0,0.22951825916666502,7.559470859148015
mp-639682,SiO2,"[Element O, Element Si]",2,Si10 O20,5.7946,-3.238069981333334,1.58982169377308
mp-684580,AgI,"[Element Ag, Element I]",2,Ag1 I1,1.3143,-0.46390137333333203,5.320322248904008
mp-972825,SiH8,"[Element H, Element Si]",2,Si1 H8,6.98,-0.0029984572222220003,0.505053431237369
mp-1039108,CaMg2,"[Element Ca, Element Mg]",2,Ca2 Mg4,0.0,-0.008228888333333,1.7199130106178142
mp-1039008,Ce2Mg,"[Element Ce, Element Mg]",2,Ce4 Mg2,0.0,0.025803583333332002,6.813073038538817
mp-1062114,SmHg2,"[Element Hg, Element Sm]",2,Sm1 Hg2,0.0,-0.479724391666669,11.680319778889599
mp-1038906,Mg2Bi,"[Element Bi, Element Mg]",2,Mg4 Bi2,0.0,0.012539693333332,5.432559016417219
mp-1025067,ReGe2,"[Element Ge, Element Re]",2,Re2 Ge4,0.0,0.014889390833332001,11.384397112337512
mp-1038816,CeMg,"[Element Ce, Element Mg]",2,Ce2 Mg2,0.0,-0.019941892500000002,5.205063829229399
mp-1045896,Ni9O13,"[Element Ni, Element O]",2,Ni9 O13,0.0,-0.7995626965909091,5.417649807181886
mp-1039263,MgBi2,"[Element Bi, Element Mg]",2,Mg2 Bi4,0.0,0.012714799999998002,8.301097900939348
mp-1045898,V9O13,"[Element O, Element V]",2,V9 O13,0.0,-2.275753317045455,4.15978228822031
mp-1039091,Mg2Bi,"[Element Bi, Element Mg]",2,Mg4 Bi2,0.0,0.003292089999999,5.467246556596611
mp-1039304,CeMg2,"[Element Ce, Element Mg]",2,Ce2 Mg4,0.0,-0.01827709833333,4.182179104959786
mp-1061823,CaC2,"[Element C, Element Ca]",2,Ca1 C2,2.4591,3.815618411666666,0.039580911468174
mp-1025442,IrI3,"[Element I, Element Ir]",2,Ir2 I6,1.3846999999999992,-0.44096969,6.80542198998877
mp-1028,V3Te4,"[Element Te, Element V]",2,V3 Te4,0.0,-0.559394049523812,6.41968927079389
mp-10032,Ge2Os,"[Element Ge, Element Os]",2,Ge4 Os2,0.0,-0.083478636666669,11.804409382764906
mp-1039467,Ca2Mg,"[Element Ca, Element Mg]",2,Ca4 Mg2,0.0,-0.045340510833333,1.6497980800563021
mp-1062169,ErCd2,"[Element Cd, Element Er]",2,Er1 Cd2,0.0,0.143983403333335,7.368310083300613
mp-1062652,FeO2,"[Element Fe, Element O]",2,Fe1 O2,0.0,-1.165954956666667,4.096892538109393
mp-1064272,NaN3,"[Element N, Element Na]",2,Na1 N3,0.8688,0.7989907459375001,1.236004697820707
mp-1045826,Cr9O13,"[Element Cr, Element O]",2,Cr9 O13,0.7342000000000001,-2.038002178409091,4.373918757901041
mp-1062648,TbHg2,"[Element Hg, Element Tb]",2,Tb1 Hg2,0.0,-0.43044626541666203,12.233478284660118
mp-1025159,Te4Rh3,"[Element Rh, Element Te]",2,Te4 Rh3,0.0,-0.435488722857144,8.759403628288029
mp-1038936,MgBi,"[Element Bi, Element Mg]",2,Mg2 Bi2,0.0,-0.06740088000000101,7.045825852347981
mp-1039350,CaMg,"[Element Ca, Element Mg]",2,Ca2 Mg2,0.0,-0.04034816250000001,1.696060312384117
mp-1045643,Ti9O13,"[Element O, Element Ti]",2,Ti9 O13,0.0,-3.126782524772727,4.217889352569987
mp-1063764,BiSe,"[Element Bi, Element Se]",2,Bi2 Se2,0.0,-0.09125660536457701,4.290039122958967
mp-1064814,KC,"[Element C, Element K]",2,K2 C2,0.0,2.308820477515626,1.442123844706886
mp-1039397,Ca2Mg,"[Element Ca, Element Mg]",2,Ca4 Mg2,0.0,-0.023561929166666003,1.632928427870116
mp-1045694,Cu9O13,"[Element Cu, Element O]",2,Cu9 O13,0.0,-0.6665849043181821,5.579023363206291
mp-1038767,MgCd,"[Element Cd, Element Mg]",2,Mg2 Cd2,0.0,-0.056446033333331,5.34396609289812
mp-1063755,BiSe,"[Element Bi, Element Se]",2,Bi2 Se2,0.0,-0.08916938036458001,3.032777514842582
mp-1045833,Mn9O13,"[Element Mn, Element O]",2,Mn9 O13,0.0,-1.7974400380172422,4.361003645566057
mp-1039570,CaMg2,"[Element Ca, Element Mg]",2,Ca2 Mg4,0.0,-0.054215611666666004,1.739289096785149
mp-1061769,CrSe2,"[Element Cr, Element Se]",2,Cr1 Se2,0.0,-0.7531734615624981,2.86649553930821
mp-1063020,MgNb2,"[Element Mg, Element Nb]",2,Mg1 Nb2,0.0,0.271228295,6.053108771643182
mp-1038896,MgBi2,"[Element Bi, Element Mg]",2,Mg2 Bi4,0.0,-0.005080088333334,8.205855847321612
mp-1062030,TiS2,"[Element S, Element Ti]",2,Ti1 S2,0.05109999999999901,-1.603972986111109,1.633573734481817
mp-1038955,CeMg2,"[Element Ce, Element Mg]",2,Ce2 Mg4,0.0,-0.018379428333332,4.102462187665303
mp-1039204,MgCd2,"[Element Cd, Element Mg]",2,Mg2 Cd4,0.0,-0.0037830199999970004,6.478491289456238
mp-1064715,NaN3,"[Element N, Element Na]",2,Na1 N3,0.0,1.5788029334375,2.6171886980272223
mp-1039319,Mg2Cd,"[Element Cd, Element Mg]",2,Mg4 Cd2,0.0,-0.006912859999998001,4.126246364806601
mp-1066655,K3Rh,"[Element K, Element Rh]",2,K3 Rh1,0.0,0.540839432749999,2.062912861113317
mp-1065265,NaN3,"[Element N, Element Na]",2,Na1 N3,0.745599999999999,0.8492611959375,1.466109762495867
mp-1073254,MgSi2,"[Element Mg, Element Si]",2,Mg2 Si4,0.0,0.17711805999999902,2.472477180853989
mp-1071152,CaC2,"[Element C, Element Ca]",2,Ca2 C4,0.0,0.8457984583333331,1.803979355097891
mp-1065583,LaSe,"[Element La, Element Se]",2,La2 Se2,0.0,-2.021097102031248,2.374146244701984
mp-1073578,MgSi2,"[Element Mg, Element Si]",2,Mg2 Si4,0.0,0.307395759999999,2.68762807834315
mp-1065846,ZrBr,"[Element Br, Element Zr]",2,Zr2 Br2,0.0,-1.270171234999998,5.432361083636214
mp-1072988,Mg2Si3,"[Element Mg, Element Si]",2,Mg8 Si12,0.0,0.1517804255,2.389517694009339
mp-1073361,MgSi2,"[Element Mg, Element Si]",2,Mg4 Si8,0.0,0.177763919166666,2.461576154782308
mp-1073532,MgSi2,"[Element Mg, Element Si]",2,Mg4 Si8,0.0,0.214901046666666,2.4831770449085733
mp-1074149,Mg4Si7,"[Element Mg, Element Si]",2,Mg4 Si7,0.0,0.18158342090909102,2.455322852124326
mp-1073083,Mg2Si3,"[Element Mg, Element Si]",2,Mg4 Si6,0.0,0.173499451,2.464934874068688
mp-1073115,Mg2Si3,"[Element Mg, Element Si]",2,Mg4 Si6,0.0,0.140865875,2.490232558632149
mp-1072645,Si2Os,"[Element Os, Element Si]",2,Si4 Os2,0.0,-0.42487558000000003,9.634289650250892
mp-1072660,VAs2,"[Element As, Element V]",2,V2 As4,0.003699999999999,-0.43055355500000003,6.931897586474049
mp-1073136,Mg2Si3,"[Element Mg, Element Si]",2,Mg4 Si6,0.0,0.193614043,2.479471060522137
mp-1073593,MgSi2,"[Element Mg, Element Si]",2,Mg4 Si8,0.0,0.176493784166666,2.54224454564414
mp-1073413,MgSi2,"[Element Mg, Element Si]",2,Mg4 Si8,0.0,0.19984917333333302,2.5681470146550502
mp-1073114,Mg2Si3,"[Element Mg, Element Si]",2,Mg4 Si6,0.0,0.115265163,2.290218534065182
mp-1072023,CrPb2,"[Element Cr, Element Pb]",2,Cr2 Pb4,0.0,0.5072520983333291,9.663683614379899
mp-1073070,Mg2Si3,"[Element Mg, Element Si]",2,Mg4 Si6,0.0,0.115215436,2.475950861501992
mp-1073850,MgSi,"[Element Mg, Element Si]",2,Mg6 Si6,0.0,0.11415773333333301,2.307208717562852
mp-1073013,Mg2Si3,"[Element Mg, Element Si]",2,Mg8 Si12,0.0,0.15565910800000002,2.420294854181754
mp-1073224,Mg2Si3,"[Element Mg, Element Si]",2,Mg8 Si12,0.0,0.14552216350000002,2.403854269623534
mp-1073586,MgSi2,"[Element Mg, Element Si]",2,Mg4 Si8,0.0,0.30863490583333303,2.703455841778135
mp-1073359,MgSi2,"[Element Mg, Element Si]",2,Mg4 Si8,0.0,0.171586026666666,2.489823140549758
mp-1069751,Pr2Os3,"[Element Os, Element Pr]",2,Pr2 Os3,0.0,0.37278041847083004,11.727439125644144
mp-1072744,Hf2Bi,"[Element Bi, Element Hf]",2,Hf4 Bi2,0.0,-0.19348328666667103,13.368139107414914