material_id,formula_pretty,elements,nelements,composition,band_gap,formation_energy_per_atom,density
mp-1073495,MgSi2,"[Element Mg, Element Si]",2,Mg4 Si8,0.0,0.174261829999999,2.285308616936787
mp-1073227,Mg2Si3,"[Element Mg, Element Si]",2,Mg4 Si6,0.0,0.190158084,2.5672334083689563
mp-1073739,MgSi,"[Element Mg, Element Si]",2,Mg2 Si2,0.0,0.175241562499999,2.456503369850665
mp-1073575,MgSi2,"[Element Mg, Element Si]",2,Mg4 Si8,0.0,0.262053297499999,2.548596674703328
mp-1073294,MgSi2,"[Element Mg, Element Si]",2,Mg4 Si8,0.0,0.167503105833333,2.381594070420398
mp-1064840,BiS,"[Element Bi, Element S]",2,Bi2 S2,0.0,-0.05155433848958001,4.588338956019509
mp-1073315,MgSi2,"[Element Mg, Element Si]",2,Mg4 Si8,0.0,0.218561619999999,2.5768483734983763
mp-1073777,MgSi,"[Element Mg, Element Si]",2,Mg6 Si6,0.0,0.040450323333333,2.306775108278636
mp-1067235,BaSi,"[Element Ba, Element Si]",2,Ba2 Si2,0.0,-0.38526436500000005,4.286153703730487
mp-1071565,CaC2,"[Element C, Element Ca]",2,Ca2 C4,0.648,3.494955818333333,0.088525142068043
mp-1073635,MgSi2,"[Element Mg, Element Si]",2,Mg4 Si8,0.0,0.274768241666666,2.577391458566697
mp-1073656,MgSi2,"[Element Mg, Element Si]",2,Mg4 Si8,0.0,0.195198478333332,2.300459110797895
mp-1073663,MgSi2,"[Element Mg, Element Si]",2,Mg4 Si8,0.0,0.18124972583333201,2.472497372959082
mp-1073789,MgSi,"[Element Mg, Element Si]",2,Mg6 Si6,0.0,0.10524675833333301,2.241757396707816
mp-1073810,MgSi,"[Element Mg, Element Si]",2,Mg6 Si6,0.0,0.133563028333333,2.220132076057433
mp-1078829,Gd2Cl3,"[Element Cl, Element Gd]",2,Gd4 Cl6,0.1814,-2.051747162499998,5.105583282604672
mp-1075430,Mg5Si6,"[Element Mg, Element Si]",2,Mg10 Si12,0.0,0.114374129545454,2.34235025522384
mp-1075771,Mg3Si2,"[Element Mg, Element Si]",2,Mg6 Si4,0.0,0.14840192299999902,2.153676590788039
mp-1077791,ZrSc2,"[Element Sc, Element Zr]",2,Zr2 Sc4,0.0,-0.0033988183333350003,4.122885447033837
mp-1077263,TiS2,"[Element S, Element Ti]",2,Ti2 S4,0.0,-1.603056449444443,2.104150566090482
mp-1079534,EuP3,"[Element Eu, Element P]",2,Eu2 P6,0.0,-0.793043139732141,4.88235928560007
mp-1078012,Cr3Te4,"[Element Cr, Element Te]",2,Cr3 Te4,0.0,-0.42850677095238104,6.295400817965484
mp-1077354,ReN2,"[Element N, Element Re]",2,Re2 N4,0.0,0.073840401666667,12.948586128256359
mp-1078331,Sb2Te3,"[Element Sb, Element Te]",2,Sb4 Te6,0.0,-0.34285959399999805,5.914219048641755
mp-1077372,Zr2Cu,"[Element Cu, Element Zr]",2,Zr4 Cu2,0.0,-0.089884348333331,6.992569168056965
mp-1074637,Mg2Si,"[Element Mg, Element Si]",2,Mg8 Si4,0.0,0.10082658999999901,2.265766997936873
mp-1077978,Ti3Se4,"[Element Se, Element Ti]",2,Ti3 Se4,0.0,-1.471370451339285,5.413805294016958
mp-1077305,TlCl2,"[Element Cl, Element Tl]",2,Tl2 Cl4,0.0,-0.312726869444447,0.39474487301696004
mp-1077116,NbP2,"[Element Nb, Element P]",2,Nb2 P4,0.0,-0.674521791428572,5.289013997335093
mp-1079094,Sb2Te3,"[Element Sb, Element Te]",2,Sb4 Te6,0.0,0.097530007000001,7.521368697740696
mp-1079159,Ta2O3,"[Element O, Element Ta]",2,Ta4 O6,0.0,-2.594951290933333,11.582388993307815
mp-1078443,As2Se3,"[Element As, Element Se]",2,As4 Se6,0.6002999999999991,-0.11215298243749801,5.039011232617804
mp-1078796,EuAs3,"[Element As, Element Eu]",2,Eu2 As6,0.0,-0.619419693125002,6.53106675028379
mp-1079776,Hf2Co7,"[Element Co, Element Hf]",2,Hf2 Co7,0.0,-0.222675214985144,11.042572326012923
mp-1078181,SiBr3,"[Element Br, Element Si]",2,Si2 Br6,3.8434,-1.17804176625,3.067005002968582
mp-1077948,Te4Pt3,"[Element Pt, Element Te]",2,Te4 Pt3,0.0,0.18836690000000503,6.598560787752945
mp-1077179,As2W,"[Element As, Element W]",2,As4 W2,0.0,-0.06157262666666401,10.834820174343976
mp-1078239,WBr4,"[Element Br, Element W]",2,W2 Br8,0.196299999999999,-0.898331740000001,5.761594639478567
mp-1080203,CuN,"[Element Cu, Element N]",2,Cu2 N2,0.0,0.20554500500000103,5.838862400383055
mp-1078708,TcCl3,"[Element Cl, Element Tc]",2,Tc2 Cl6,0.0,-0.7755203593749991,3.5679258661261413
mp-1077889,IrC2,"[Element C, Element Ir]",2,Ir2 C4,0.0,1.293225439999995,10.251680907895926
mp-1079143,CoGe,"[Element Co, Element Ge]",2,Co4 Ge4,0.0,0.593298122499998,6.771962850997993
mp-1079480,Tb3Ni2,"[Element Ni, Element Tb]",2,Tb6 Ni4,0.0,-0.343988084,8.812395311981218
mp-1094252,MgSn2,"[Element Mg, Element Sn]",2,Mg2 Sn4,0.0,-0.016077773333332,5.642983189291873
mp-1094110,Ni5Cl6,"[Element Cl, Element Ni]",2,Ni5 Cl6,0.0,-0.47294229681818106,4.4924229384967305
mp-1094452,YMg,"[Element Mg, Element Y]",2,Y2 Mg2,0.0,0.011612107500000001,3.331032921602477
mp-1080367,CeSe2,"[Element Ce, Element Se]",2,Ce12 Se24,0.972,-1.393063989895833,1.815369511666328
mp-1080834,Na5As4,"[Element As, Element Na]",2,Na5 As4,0.0,-0.530444247777778,3.213586322279594
mp-1091391,BaTl4,"[Element Ba, Element Tl]",2,Ba2 Tl8,0.0,-0.23627580666667303,9.736787707670024
mp-1080321,CeSe2,"[Element Ce, Element Se]",2,Ce4 Se8,0.6561,-1.7759190190624992,4.408716666673692
mp-1094176,LaMg2,"[Element La, Element Mg]",2,La2 Mg4,0.0,0.007089418333332,3.7321822602189103
mp-1094352,Sr2Mg,"[Element Mg, Element Sr]",2,Sr4 Mg2,0.0,0.034350370000000005,2.556380807927077
mp-1080428,NbBr4,"[Element Br, Element Nb]",2,Nb2 Br8,0.8728,-1.3263213040000061,4.416434249597641
mp-1080523,Ho3Ni2,"[Element Ho, Element Ni]",2,Ho6 Ni4,0.0,-0.36926118099999305,9.336920982603964
mp-1094132,Lu5Ga3,"[Element Ga, Element Lu]",2,Lu10 Ga6,0.0,-0.5934929885416651,9.507132740791228
mp-1094135,LiO2,"[Element Li, Element O]",2,Li2 O4,0.0,-0.809117267777778,2.351848252569968
mp-1094168,LaMg2,"[Element La, Element Mg]",2,La2 Mg4,0.0,-0.027981690000000004,3.711392640620348
mp-1094456,MgZn2,"[Element Mg, Element Zn]",2,Mg2 Zn4,0.0,0.00036363833333300004,5.000539699190526
mp-1094505,MgZn,"[Element Mg, Element Zn]",2,Mg2 Zn2,0.0,-0.035028392499999006,4.21590167534025
mp-1094408,YMg2,"[Element Mg, Element Y]",2,Y2 Mg4,0.0,0.04625581333333301,2.85775219516301
mp-1094501,MgTi,"[Element Mg, Element Ti]",2,Mg2 Ti2,0.0,0.17634309583333202,3.133684216439164
mp-1094152,CeSe2,"[Element Ce, Element Se]",2,Ce14 Se28,0.923999999999999,-1.396141562752975,1.9590497980149042
mp-1094489,Mg2Zn,"[Element Mg, Element Zn]",2,Mg4 Zn2,0.0,0.018869966666666002,3.167814477147044
mp-1094504,MgZn2,"[Element Mg, Element Zn]",2,Mg2 Zn4,0.0,0.003534481666666,4.918721633955251
mp-1080855,CeSe2,"[Element Ce, Element Se]",2,Ce16 Se32,0.998499999999999,-1.395244079687498,1.707804329409259
mp-1094274,SrMg,"[Element Mg, Element Sr]",2,Sr2 Mg2,0.0,0.005341699999998,2.524741758147959
mp-1094317,Sr2Mg,"[Element Mg, Element Sr]",2,Sr4 Mg2,0.0,0.012041243333333,2.558146398540265
mp-1094369,Mg2Ti,"[Element Mg, Element Ti]",2,Mg4 Ti2,0.0,0.155161107222221,2.6218643432564672
mp-1094432,MgZn2,"[Element Mg, Element Zn]",2,Mg2 Zn4,0.0,-0.024907058333333003,5.122708293938455
mp-1094458,Mg2Zn,"[Element Mg, Element Zn]",2,Mg4 Zn2,0.0,0.009352788333333,3.164255769743937
mp-1094491,SrMg2,"[Element Mg, Element Sr]",2,Sr2 Mg4,0.0,-0.0031077083333330003,2.342125122466746
mp-1092293,Bi2Pt,"[Element Bi, Element Pt]",2,Bi2 Pt1,0.0,-0.23567185958333403,12.204140709007412
mp-1087550,CeSe2,"[Element Ce, Element Se]",2,Ce12 Se24,1.0122,-1.393082956006944,1.7375402277612162
mp-1094300,SrMg2,"[Element Mg, Element Sr]",2,Sr2 Mg4,0.0,0.030534018333333003,2.378765723580509
mp-1081,V3S4,"[Element S, Element V]",2,V3 S4,0.0,-1.357067588571421,4.266205343103994
mp-1094190,La2Mg,"[Element La, Element Mg]",2,La4 Mg2,0.0,-0.0066843733333340006,5.143901533867726
mp-1094211,Mg2Sn,"[Element Mg, Element Sn]",2,Mg4 Sn2,0.0,-0.0060367399999990004,3.845808506915307
mp-1080371,CeSe2,"[Element Ce, Element Se]",2,Ce28 Se56,0.9910000000000001,-1.393954781205356,1.835495246607044
mp-1094221,Mg2Sn,"[Element Mg, Element Sn]",2,Mg4 Sn2,0.0,-0.056728109999999006,3.896725149890937
mp-1094351,MgTi2,"[Element Mg, Element Ti]",2,Mg2 Ti4,0.0,0.071795466111109,3.538949116750616
mp-1094454,YMg2,"[Element Mg, Element Y]",2,Y2 Mg4,0.0,-0.012485221666666001,2.910189613703363
mp-1094511,MgTi2,"[Element Mg, Element Ti]",2,Mg2 Ti4,0.0,0.092451292777776,3.555609625223804
mp-1094239,MgSn2,"[Element Mg, Element Sn]",2,Mg2 Sn4,0.0,-0.011640223333332,5.611519586687395
mp-1094419,Y2Mg,"[Element Mg, Element Y]",2,Y4 Mg2,0.0,0.018895000000000002,3.712423714971126
mp-1094177,La2Mg,"[Element La, Element Mg]",2,La4 Mg2,0.0,-0.033411653333334006,5.048562019165181
mp-1094503,Mg2Zn,"[Element Mg, Element Zn]",2,Mg4 Zn2,0.0,-0.011951768333333002,3.315623853409557
mp-1094206,MgSn2,"[Element Mg, Element Sn]",2,Mg2 Sn4,0.0,-0.0019845233333330003,5.595378787148984
mp-1094543,Mg2Sn,"[Element Mg, Element Sn]",2,Mg4 Sn2,0.0,-0.075057156666666,3.89772148865732
mp-1094531,Y2Mg,"[Element Mg, Element Y]",2,Y4 Mg2,0.0,0.0047158066666660005,3.798095504443152
mp-1094674,Mg2Ga,"[Element Ga, Element Mg]",2,Mg4 Ga2,0.0,-0.047960860833333,3.156066944069483
mp-1094624,MgGa2,"[Element Ga, Element Mg]",2,Mg2 Ga4,0.0,-0.05238883833333301,4.665941935912435
mp-1095014,MgBi2,"[Element Bi, Element Mg]",2,Mg2 Bi4,0.0,-0.008666690000001,8.34347126043184
mp-1096898,Cr3N2,"[Element Cr, Element N]",2,Cr9 N6,0.0,-0.534668094833332,6.747220449797423
mp-1094527,MgSb2,"[Element Mg, Element Sb]",2,Mg2 Sb4,0.0,-0.12051097333333201,5.493978019589776
mp-1094547,MgSb2,"[Element Mg, Element Sb]",2,Mg2 Sb4,0.0,-0.09763439666666601,5.734310527814403
mp-1094561,MgSb2,"[Element Mg, Element Sb]",2,Mg2 Sb4,0.0,-0.132924609999999,5.644270727591392
mp-1094822,MgBi2,"[Element Bi, Element Mg]",2,Mg2 Bi4,0.0,0.016703754999998002,8.457383652516045
mp-1096966,CrN2,"[Element Cr, Element N]",2,Cr28 N56,0.0,-0.126078061011905,1.888343304585507
mp-1094646,MgGa2,"[Element Ga, Element Mg]",2,Mg2 Ga4,0.0,-0.027731648333333,4.659000799624479
mp-1096911,CrN2,"[Element Cr, Element N]",2,Cr22 N44,0.000499999999999,-0.129418172462118,2.084645212563709
mp-1095567,ErMn2,"[Element Er, Element Mn]",2,Er4 Mn8,0.0,-0.061920562155175,9.63104921544201
mp-1095187,Nb2O3,"[Element Nb, Element O]",2,Nb4 O6,0.0,-2.572572488999999,6.514087804223596
mp-1096912,CrN2,"[Element Cr, Element N]",2,Cr14 N28,0.0,-0.110429872916665,1.9247136481180491
mp-1094601,Li2Mg,"[Element Li, Element Mg]",2,Li4 Mg2,0.0,-0.023806947777777,1.036254303715672
mp-1095641,Tb5S7,"[Element S, Element Tb]",2,Tb5 S7,0.0,-2.386663819973959,6.116642684742423
mp-1094621,MgGa,"[Element Ga, Element Mg]",2,Mg2 Ga2,0.0,-0.086574766249999,4.009383392526082
mp-1094635,Mg2Ga,"[Element Ga, Element Mg]",2,Mg4 Ga2,0.0,-0.05442311749999901,3.207240541074227
mp-1094901,MgCd2,"[Element Cd, Element Mg]",2,Mg2 Cd4,0.0,-0.016045344999997,6.522570423394536
mp-1095275,GeP,"[Element Ge, Element P]",2,Ge6 P6,0.48890000000000006,-0.009709900654762,3.814043347529472
mp-1094584,Mg2Sb,"[Element Mg, Element Sb]",2,Mg4 Sb2,0.0,-0.166806063333332,3.88368373095269
mp-1094640,MgGa2,"[Element Ga, Element Mg]",2,Mg2 Ga4,0.0,-0.060749663333333,4.8980434179587125
mp-1094776,Mg2Cd,"[Element Cd, Element Mg]",2,Mg4 Cd2,0.0,-0.025622488333331,4.1616873675090265
mp-1096906,CrN2,"[Element Cr, Element N]",2,Cr16 N32,0.0,-0.12148989291666601,1.7560461260337181
mp-1094565,MgSb,"[Element Mg, Element Sb]",2,Mg2 Sb2,0.0,-0.22516736749999902,4.871368724009086
mp-1094553,Mg2Sb,"[Element Mg, Element Sb]",2,Mg4 Sb2,0.0,-0.196271514999999,3.834613522187873
mp-1095005,Ca2Mg,"[Element Ca, Element Mg]",2,Ca4 Mg2,0.0,-0.021840376666666002,1.625724852073275
mp-1096803,MgO2,"[Element Mg, Element O]",2,Mg1 O2,0.0,-1.485110705,2.520416714077016
mp-1094568,LiMg,"[Element Li, Element Mg]",2,Li2 Mg2,0.0,-0.031319675833332006,1.238128792846922
mp-1094583,Mg2Sb,"[Element Mg, Element Sb]",2,Mg4 Sb2,0.0,-0.07343738166666601,3.895885246831718
mp-1094600,LiMg2,"[Element Li, Element Mg]",2,Li2 Mg4,0.0,-0.027757740555555,1.4291499274841262
mp-1094837,Ce2Mg,"[Element Ce, Element Mg]",2,Ce4 Mg2,0.0,0.08016449222222301,6.401995641807435
mp-1095382,Fe5O7,"[Element Fe, Element O]",2,Fe5 O7,0.0,-1.49997127625,5.336882339352854
mp-1094812,MgCd2,"[Element Cd, Element Mg]",2,Mg4 Cd8,0.0,-0.0042501333333310005,6.484193600725104
mp-1095508,Er5S7,"[Element Er, Element S]",2,Er5 S7,0.0,-2.357647704696182,6.665657926587707
mp-1094619,Mg2Ga,"[Element Ga, Element Mg]",2,Mg4 Ga2,0.0,-0.043763770833333,3.166974817578709
mp-1095302,BiSe2,"[Element Bi, Element Se]",2,Bi4 Se8,0.6721,-0.34059164354166604,7.001708196673084
mp-1096769,Ni3Cl4,"[Element Cl, Element Ni]",2,Ni6 Cl8,0.0,-0.5759584885714261,4.301688206262111
mp-1100451,MgSi,"[Element Mg, Element Si]",2,Mg6 Si6,0.0,0.157727066666666,2.4641194302050833
mp-1097059,CrN2,"[Element Cr, Element N]",2,Cr28 N56,0.0,-0.132767511488095,1.845817697818871
mp-1097873,NdB4,"[Element B, Element Nd]",2,Nd1 B4,0.0,0.160347749,5.091475734141467
mp-1101463,Ti11O14,"[Element O, Element Ti]",2,Ti11 O14,0.0,-3.097261361866666,4.875781602508978
mp-11329,P2W,"[Element P, Element W]",2,P4 W2,0.0,-0.35821996865079103,9.252974642726363
mp-1101178,WN2,"[Element N, Element W]",2,W4 N8,0.48410000000000003,-0.34029517937500403,8.889404658324326
mp-1097933,Sr2Mg,"[Element Mg, Element Sr]",2,Sr4 Mg2,0.0,-0.0029628433333330003,2.553995507293158
mp-1100908,VO2,"[Element O, Element V]",2,V4 O8,0.648,-2.455371445000002,4.406280337711627
mp-1100452,MgSi,"[Element Mg, Element Si]",2,Mg6 Si6,0.0,0.11655293583333301,2.387141842461987
mp-1102510,Ho5S7,"[Element Ho, Element S]",2,Ho5 S7,0.0,-2.369066010390623,6.4924381478953315
mp-1104276,ErNi4,"[Element Er, Element Ni]",2,Er3 Ni12,0.0,-0.37379081066666603,9.85935997114024
mp-1100983,U2O5,"[Element O, Element U]",2,U6 O15,0.0,-3.537594415952378,11.152159783670797
mp-1103125,Dy5S7,"[Element Dy, Element S]",2,Dy5 S7,0.0,-2.379324841223957,6.319385731483189
mp-1104418,H6W,"[Element H, Element W]",2,H12 W2,0.0,0.222003479999999,6.105167443459917
mp-1101099,Ti2S3,"[Element S, Element Ti]",2,Ti4 S6,0.0,-1.706255212833332,3.6485782658284
mp-1101787,LaSi5,"[Element La, Element Si]",2,La2 Si10,0.0,-0.168051889999998,3.8525418945529752
mp-1105338,Ti3O7,"[Element O, Element Ti]",2,Ti6 O14,0.0,-2.8857484035,2.987298169536054
mp-1120786,VBi2,"[Element Bi, Element V]",2,V2 Bi4,0.0,0.22927844666667302,10.708620926506653
mp-1099574,CeSe2,"[Element Ce, Element Se]",2,Ce16 Se32,0.9123000000000001,-1.413547620729165,1.7488275373655742
mp-1102847,Tm5S7,"[Element S, Element Tm]",2,Tm5 S7,0.0,-2.355824927473956,6.817535719987184
mp-1104558,Bi10Mo3,"[Element Bi, Element Mo]",2,Bi10 Mo3,0.0,0.34893774923076404,10.941162533203832
mp-1101301,TeO3,"[Element O, Element Te]",2,Te4 O12,2.1595,-1.341681144166666,5.250929414722769
mp-1104327,Cr5Se8,"[Element Cr, Element Se]",2,Cr5 Se8,0.0,-0.8122932552884601,5.563426496868789
mp-11108,SrP3,"[Element P, Element Sr]",2,Sr2 P6,0.0001,-0.749926985982144,3.365427525796904
mp-1105985,Bi14Mo5,"[Element Bi, Element Mo]",2,Bi14 Mo5,0.0,0.32148761315789603,10.797690384694246
mp-1120821,V4Bi3,"[Element Bi, Element V]",2,V8 Bi6,0.0,0.258438782857138,9.423699432070809
mp-1100449,Mg3Si2,"[Element Mg, Element Si]",2,Mg3 Si2,0.0,0.029630270999999004,2.212412578159357
mp-1100461,MgSi2,"[Element Mg, Element Si]",2,Mg2 Si4,0.0,0.16554105166666602,2.501052167170798
mp-1103057,GePd5,"[Element Ge, Element Pd]",2,Ge2 Pd10,0.0,-0.318894921666663,11.161661243577688
mp-11697,TaSb2,"[Element Sb, Element Ta]",2,Ta2 Sb4,0.0,-0.16808569077777702,10.306891716090723
mp-1173028,NdO3,"[Element Nd, Element O]",2,Nd2 O6,2.1102,-2.194506223125,4.049247298954863
mp-11687,VTe2,"[Element Te, Element V]",2,V3 Te6,0.0,-0.607788566666661,6.273629128453153
mp-1178827,V3O8,"[Element O, Element V]",2,V3 O8,0.0,-1.979517925454545,3.3391432170997932
mp-1178232,FeO,"[Element Fe, Element O]",2,Fe4 O4,0.0,-1.4694833325,5.602115229250103
mp-11800,Co3Se4,"[Element Co, Element Se]",2,Co3 Se4,0.0,-0.304040632321429,6.9803763019312814
mp-11675,NbTe2,"[Element Nb, Element Te]",2,Nb3 Te6,0.0,-0.7424392444444451,6.956159879829843
mp-1178766,ZnBr2,"[Element Br, Element Zn]",2,Zn1 Br2,3.178,-1.1578740933333331,3.973718659294293
mp-1179488,SiO2,"[Element O, Element Si]",2,Si28 O56,0.141899999999999,-2.172436067619048,1.971722220504259
mp-1178763,VS2,"[Element S, Element V]",2,V2 S4,0.0,-1.181916868333332,1.854091412699375
mp-1179239,TbFe2,"[Element Fe, Element Tb]",2,Tb2 Fe4,0.0,1.586616186111111,6.088917022969561
mp-1179538,Sr2N,"[Element N, Element Sr]",2,Sr2 N1,0.11120000000000001,2.597930930416665,0.119441087234535
mp-1173210,Sr4N3,"[Element N, Element Sr]",2,Sr4 N3,0.0,-0.5242598008928571,4.16114772841652
mp-1179586,U2Zn17,"[Element U, Element Zn]",2,U2 Zn17,0.027699999999999003,1.510657679473685,0.7313183992234821
mp-1173004,Mo3O8,"[Element Mo, Element O]",2,Mo6 O16,1.2265,-1.698086945909091,4.230139536259214
mp-1173444,Rb3P11,"[Element P, Element Rb]",2,Rb6 P22,0.0,-0.043510536683672,2.623872028953463
mp-1179684,RbS,"[Element Rb, Element S]",2,Rb1 S1,0.329099999999999,-0.162013682499999,0.43026736970699203
mp-1179688,RbP,"[Element P, Element Rb]",2,Rb1 P1,0.0,0.628490098928572,2.215405652011254
mp-1179649,Sn4As3,"[Element As, Element Sn]",2,Sn4 As3,0.0,1.261015298928571,0.837394969224835
mp-11696,As3W2,"[Element As, Element W]",2,As6 W4,0.0,-0.0927698695,11.240046269237876
mp-1147,Ti3O5,"[Element O, Element Ti]",2,Ti6 O10,0.0,-3.379942991875,4.273518581031359
mp-1179520,Sc5Ga3,"[Element Ga, Element Sc]",2,Sc10 Ga6,0.0,-0.590180890624999,4.295443310253034
mp-1179938,PtCl2,"[Element Cl, Element Pt]",2,Pt6 Cl12,0.0,0.10440218055555901,3.85106702599609
mp-1179363,V3O8,"[Element O, Element V]",2,V3 O8,0.527299999999999,-1.5634042981818181,2.909329693007212
mp-1179358,Ti3O7,"[Element O, Element Ti]",2,Ti6 O14,0.158699999999999,-2.913736122499999,1.400272754682558
mp-1178810,VIr,"[Element Ir, Element V]",2,V16 Ir16,0.0,-0.5927182118750021,14.488801495890893
mp-11690,Tc2P3,"[Element P, Element Tc]",2,Tc4 P6,0.0,-0.584608927785711,6.70039544512749
mp-1173647,Nb20N17,"[Element N, Element Nb]",2,Nb20 N17,0.0,-1.057269231047297,8.045368502778956
mp-1178850,V3O8,"[Element O, Element V]",2,V3 O8,0.0,-1.260409166363636,2.563329416298016
mp-1186248,NbF5,"[Element F, Element Nb]",2,Nb4 F20,4.399,-3.108309014999999,3.601945757772551
mp-1184866,HoMg5,"[Element Ho, Element Mg]",2,Ho1 Mg5,0.0,0.024401425000001004,3.282444233322001
mp-1180648,KS,"[Element K, Element S]",2,K1 S1,0.375999999999999,-0.086938732447915,0.299695948181781
mp-1185919,MgPb,"[Element Mg, Element Pb]",2,Mg2 Pb2,0.0,-0.002698947499997,7.464204552749545
mp-1182783,Bi2Te3,"[Element Bi, Element Te]",2,Bi2 Te3,0.4617,0.359870538000001,3.7070191809403132
mp-1187021,SmMg5,"[Element Mg, Element Sm]",2,Sm1 Mg5,0.0,0.013051123333333001,3.045250091434701
mp-1180106,NaS,"[Element Na, Element S]",2,Na1 S1,0.35339999999999905,0.001794474843749,0.30201104396961004
mp-1182583,Bi2Se3,"[Element Bi, Element Se]",2,Bi2 Se3,0.0,0.254205126562499,5.022671897302478
mp-1182123,BaSb2,"[Element Ba, Element Sb]",2,Ba1 Sb2,0.0,-0.7802062266666661,5.61122122975551
mp-1180210,NaO5,"[Element Na, Element O]",2,Na2 O10,0.0,-0.09845147772988401,2.018507962800709
mp-1186252,Nd2Mg,"[Element Mg, Element Nd]",2,Nd4 Mg2,0.0,-0.031798001666665,5.4580307865421425
mp-1185954,MgSb2,"[Element Mg, Element Sb]",2,Mg2 Sb4,0.0,-0.130798133333332,5.428076447623547
mp-1183089,Ac2Mg,"[Element Ac, Element Mg]",2,Ac4 Mg2,0.0,-0.01975081833334,6.781411421394513
mp-1185867,MgGe2,"[Element Ge, Element Mg]",2,Mg2 Ge4,0.0,0.011873634166665,4.589141773526214
mp-1185928,MgPb2,"[Element Mg, Element Pb]",2,Mg2 Pb4,0.0,0.014790295000002,8.432203073413076
mp-1180260,MgO2,"[Element Mg, Element O]",2,Mg1 O2,0.0,-1.487287021666667,2.769782501780662
mp-1180810,K3Rh,"[Element K, Element Rh]",2,K3 Rh1,0.0,0.5617919327499991,1.9067088333890072
mp-1185956,MgSc2,"[Element Mg, Element Sc]",2,Mg2 Sc4,0.0,0.0006391300000010001,2.60138408827626
mp-1186484,Pm2Mg,"[Element Mg, Element Pm]",2,Pm4 Mg2,0.0,-0.031030564999997002,5.5996191113132205
mp-1186828,Rb2Mg,"[Element Mg, Element Rb]",2,Rb4 Mg2,0.0,0.203930828333333,1.747923159461851
mp-1188069,Zr2Ni7,"[Element Ni, Element Zr]",2,Zr4 Ni14,0.0,-0.42350179944444405,8.791316149278538
mp-1181781,CoO2,"[Element Co, Element O]",2,Co1 O2,0.9901999999999991,0.23750547999999902,1.134531227181001