material_id,formula_pretty,elements,nelements,composition,band_gap,formation_energy_per_atom,density
mp-12545,Er3Pd2,"[Element Er, Element Pd]",2,Er6 Pd4,0.0,-0.7811134539999951,10.305691014530604
mp-12569,PrB4,"[Element B, Element Pr]",2,Pr4 B16,0.0,-0.6078151538333331,5.576469593263743
mp-13427,Sr3Hg2,"[Element Hg, Element Sr]",2,Sr6 Hg4,0.0,-0.442384969000001,6.041908947799252
mp-1213975,CaB4,"[Element B, Element Ca]",2,Ca4 B16,0.0,-0.4606473535,2.642539600836124
mp-20617,Th3Si2,"[Element Si, Element Th]",2,Th6 Si4,0.0,0.44624162000000606,8.333555055700153
mp-1222413,LiB3,"[Element B, Element Li]",2,Li4 B12,0.09189999999999901,-0.285529338541667,1.78034894226488
mp-12544,Ho3Pd2,"[Element Ho, Element Pd]",2,Ho6 Pd4,0.0,-0.7727083209999991,10.054762841017341
mp-1985644,Gd3Ga2,"[Element Ga, Element Gd]",2,Gd6 Ga4,0.0,-0.509122872999999,7.796224273604857
mp-20467,PuB4,"[Element B, Element Pu]",2,Pu4 B16,0.0,-0.5973231562500011,9.274993370212265
mp-16756,Ta3Ga2,"[Element Ga, Element Ta]",2,Ta6 Ga4,0.0,-0.35587218140000204,13.775691926637759
mp-1974,CeB4,"[Element B, Element Ce]",2,Ce4 B16,0.0,-0.6676267045000011,5.8040245745681
mp-19984,TbB4,"[Element B, Element Tb]",2,Tb4 B16,0.0,0.465819232499998,4.401436829544742
mp-1205418,B4W,"[Element B, Element W]",2,B16 W4,0.0,0.508535174833329,7.935450619104553
mp-2719,DyB4,"[Element B, Element Dy]",2,Dy4 B16,0.0,-0.6685480794999991,6.770063387208091
mp-22077,Gd3Pd2,"[Element Gd, Element Pd]",2,Gd6 Pd4,0.0,-0.638129452999993,9.278230322290735
mp-21346,U3Si2,"[Element Si, Element U]",2,U6 Si4,0.0,-0.161566780099997,12.50099510704088
mp-2091,V3B2,"[Element B, Element V]",2,V6 B4,0.0,-0.776987983,5.9076915523350255
mp-568774,Ca36Sn23,"[Element Ca, Element Sn]",2,Ca72 Sn46,0.06709999999999901,-0.653515339745761,3.781054273807241
mp-558203,SiO2,"[Element O, Element Si]",2,Si32 O64,6.021100000000001,-3.183927429999999,1.283422785439126
mp-2378,Th3Al2,"[Element Al, Element Th]",2,Th6 Al4,0.0,-0.255775634999992,9.002892763465157
mp-547271,ReO3,"[Element O, Element Re]",2,Re2 O6,0.0,-2.131536694375,7.300966323496917
mp-30670,Th3Ga2,"[Element Ga, Element Th]",2,Th6 Ga4,0.0,-0.46397430999999106,10.164850230612135
mp-30721,Hg5Pd2,"[Element Hg, Element Pd]",2,Hg10 Pd4,0.0,-0.055587898928577004,14.089971596714607
mp-555026,AlF3,"[Element Al, Element F]",2,Al10 F30,7.4176,-3.850576290499999,2.951076850618678
mp-30720,Mn2Hg5,"[Element Hg, Element Mn]",2,Mn4 Hg10,0.0,0.23620206559113302,12.237332412147238
mp-22050,Hf2In5,"[Element Hf, Element In]",2,Hf4 In10,0.0,-0.24624997642856802,9.517648726571823
mp-2105,Hf3Si2,"[Element Hf, Element Si]",2,Hf6 Si4,0.0,-0.844293900000002,10.978191815965062
mp-542573,ThB4,"[Element B, Element Th]",2,Th4 B16,0.0,-0.6502088425000011,8.414297555379653
mp-20689,Nb3B2,"[Element B, Element Nb]",2,Nb6 B4,0.0,-0.672687687000001,7.753696904319577
mp-2847,ErB4,"[Element B, Element Er]",2,Er4 B16,0.0,-0.653387246666667,7.040771163568372
mp-568143,TmB4,"[Element B, Element Tm]",2,Tm4 B16,0.0,-0.648248198499999,7.151709830084103
mp-568225,TbB4,"[Element B, Element Tb]",2,Tb4 B16,0.0,-0.6738813725,6.596640983994539
mp-30684,Zr3Ga2,"[Element Ga, Element Zr]",2,Zr6 Ga4,0.0,-0.618283761,6.8866902031973325
mp-314,Th3Ge2,"[Element Ge, Element Th]",2,Th6 Ge4,0.0,-0.754729276999995,10.501090362077449
mp-607225,Mn2Ga5,"[Element Ga, Element Mn]",2,Mn4 Ga10,0.0,-0.145956428423644,7.200126330920139
mp-623066,GaPt3,"[Element Ga, Element Pt]",2,Ga4 Pt12,0.0,-0.43938510687499804,17.74357770133841
mp-569281,HoB4,"[Element B, Element Ho]",2,Ho4 B16,0.0,-0.660568279,6.904081854217667
mp-607111,AlPt3,"[Element Al, Element Pt]",2,Al4 Pt12,0.0,-0.7531256231249941,17.220857989024434
mp-621667,Eu3Ag2,"[Element Ag, Element Eu]",2,Eu6 Ag4,0.0,-0.26552841999999804,7.20001108815874
mp-669913,Sr2Pb3,"[Element Pb, Element Sr]",2,Sr4 Pb6,0.0,-0.582669615999998,7.589898686534993
mp-976273,Hf3Ge2,"[Element Ge, Element Hf]",2,Hf6 Ge4,0.0,-0.7658539860000071,12.116225347484127
mp-570034,ErB4,"[Element B, Element Er]",2,Er4 B16,0.0,0.471762535333331,4.735814421214925
mp-637377,Ti2In5,"[Element In, Element Ti]",2,Ti4 In10,0.0,0.040960622142857006,5.9319464334842
mp-637,YB4,"[Element B, Element Y]",2,Y4 B16,0.0,-0.6594823535000001,4.327544551554532
mp-571495,LuB4,"[Element B, Element Lu]",2,Lu4 B16,0.0,-0.620318216833331,7.450282496326304
mp-619,UB4,"[Element B, Element U]",2,U4 B16,0.0,-0.5120273574999991,9.644828324960953
mp-7283,LaB4,"[Element B, Element La]",2,La4 B16,0.0,-0.6274805885000001,5.392531960342765
mp-753295,MnF3,"[Element F, Element Mn]",2,Mn2 F6,0.0,-2.738024371982758,3.39745074552192
mp-759525,MnF3,"[Element F, Element Mn]",2,Mn10 F30,0.0,-2.737603051232759,3.05145086694886
mp-8546,SmB4,"[Element B, Element Sm]",2,Sm4 B16,0.0,-0.6555117165000011,6.107957376705976
mp-997569,AlP,"[Element Al, Element P]",2,Al4 P4,2.3944,-0.068993173988094,0.528386498678556
mp-759790,Ag2Hg5,"[Element Ag, Element Hg]",2,Ag4 Hg10,0.0,0.079788250952373,12.433692600006895
mp-7924,Li2Sn5,"[Element Li, Element Sn]",2,Li4 Sn10,0.0,-0.18156278523809502,6.128807851937157
mp-571608,Yb3Ag2,"[Element Ag, Element Yb]",2,Yb6 Ag4,0.0,-0.249414447999998,10.001862560820708
mp-1179450,Sn3O4,"[Element O, Element Sn]",2,Sn12 O16,0.0,-1.478636287857142,5.041280084841721
mp-1203767,Lu3C4,"[Element C, Element Lu]",2,Lu30 C40,0.0,-0.378183050142857,10.085131529372177
mp-1203650,Lu15C19,"[Element C, Element Lu]",2,Lu30 C38,0.0,-0.36824786779411806,9.939372288254155
mp-22827,Er15C19,"[Element C, Element Er]",2,Er30 C38,0.0,-0.34012396117646904,9.093365334013937
mp-1203719,Er3C4,"[Element C, Element Er]",2,Er30 C40,0.0,-0.346394796428571,9.20541266461786
mp-1204458,Tm15C19,"[Element C, Element Tm]",2,Tm30 C38,0.0,-0.533092329152944,9.355721831941255
mp-28733,Sc3C4,"[Element C, Element Sc]",2,Sc30 C40,0.0,-0.541908377428571,3.5724637475332033
mp-1202754,Ho3C4,"[Element C, Element Ho]",2,Ho30 C40,0.0,-0.324850833142854,8.909663735554826
mp-1205180,Tm3C4,"[Element C, Element Tm]",2,Tm30 C40,0.0,-0.5446521288571401,9.331059414252495
mp-1104734,TeBr6,"[Element Br, Element Te]",2,Te2 Br12,0.0,-0.551377956666666,3.297411083361498
mp-1200613,Y3C4,"[Element C, Element Y]",2,Y30 C40,0.0,-0.296020273857142,4.9801455688509275
mp-1213387,Dy3C4,"[Element C, Element Dy]",2,Dy30 C40,0.0,-0.497408116142859,8.521001394648556
mp-15957,Sc15C19,"[Element C, Element Sc]",2,Sc30 C38,0.0,-0.547402738474789,3.615688626450262
mp-1018679,DyTe2,"[Element Dy, Element Te]",2,Dy2 Te4,0.0,-1.333750290000002,7.933399929572336
mp-1018692,ErTe2,"[Element Er, Element Te]",2,Er2 Te4,0.0,-1.302750410555551,8.098804635684383
mp-1018683,DySe2,"[Element Dy, Element Se]",2,Dy2 Se4,0.0,-1.7907374760416652,7.787580749720712
mp-1007758,HfCd,"[Element Cd, Element Hf]",2,Hf2 Cd2,0.0,-0.09590878000000201,11.355126085701809
mp-1018075,FeSe,"[Element Fe, Element Se]",2,Fe2 Se2,0.0,0.016266548828125,7.876250344874473
mp-1018954,PuSe2,"[Element Pu, Element Se]",2,Pu2 Se4,0.0,-1.679461347291663,9.344206667295676
mp-1018663,CeS2,"[Element Ce, Element S]",2,Ce2 S4,0.0,-1.945908330208332,5.310834691734512
mp-1018940,PrSe2,"[Element Pr, Element Se]",2,Pr2 Se4,0.0,-1.8581681965972212,6.553587912154785
mp-1017540,ZrCd,"[Element Cd, Element Zr]",2,Zr2 Cd2,0.0,-0.14070795500000302,7.741852912533875
mp-1018049,LaN,"[Element La, Element N]",2,La2 N2,1.7188999999999992,-1.458701201875001,6.8015569403362734
mp-1007755,HfAu,"[Element Au, Element Hf]",2,Hf2 Au2,0.0,-0.6057786524999991,16.25413331993791
mp-1017985,TiAg,"[Element Ag, Element Ti]",2,Ti2 Ag2,0.0,-0.054529908333332,7.5421283910794585
mp-1018700,EuO2,"[Element Eu, Element O]",2,Eu2 O4,0.0,-2.492237640000001,7.855611323228126
mp-1018817,NdSe2,"[Element Nd, Element Se]",2,Nd2 Se4,0.0,-1.858213603541666,6.759303589273671
mp-1018707,GdSe2,"[Element Gd, Element Se]",2,Gd2 Se4,0.0,-1.7896117877083282,7.450475209342012
mp-1019091,LaSe2,"[Element La, Element Se]",2,La2 Se4,0.0,-1.985490972708333,6.351268010674496
mp-1019093,PaP2,"[Element P, Element Pa]",2,Pa2 P4,0.0,-1.144111996984122,8.29893435948509
mp-1018732,HoTe2,"[Element Ho, Element Te]",2,Ho2 Te4,0.0,-1.3023902750000032,8.050428659736987
mp-1018687,ErS2,"[Element Er, Element S]",2,Er2 S4,0.0,-1.87844954798611,6.695295951955953
mp-1018717,HfSb2,"[Element Hf, Element Sb]",2,Hf2 Sb4,0.0,-0.38510883166666504,9.66005854775582
mp-1018880,PaSb2,"[Element Pa, Element Sb]",2,Pa2 Sb4,0.0,-0.625476178333334,9.578373143437952
mp-1018728,HoSe2,"[Element Ho, Element Se]",2,Ho2 Se4,0.0,-1.7675977677083332,7.926126813800247
mp-1019107,PuTe2,"[Element Pu, Element Te]",2,Pu2 Te4,0.0,-1.05908852069444,9.151140833788968
mp-1018675,DyS2,"[Element Dy, Element S]",2,Dy2 S4,0.0,-1.9085436385416652,6.396339523520827
mp-1018706,GdS2,"[Element Gd, Element S]",2,Gd2 S4,0.0,-1.8822461318750001,6.046262451794266
mp-1018792,LuS2,"[Element Lu, Element S]",2,Lu2 S4,0.0,-1.828015669097221,7.141536561460002
mp-1018793,LuSe2,"[Element Lu, Element Se]",2,Lu2 Se4,0.0,-1.672506681597222,8.481545812981132
mp-1018829,NpTe2,"[Element Np, Element Te]",2,Np2 Te4,0.0,-0.9406316990277801,8.960187788980054
mp-1018665,CeSe2,"[Element Ce, Element Se]",2,Ce2 Se4,0.0,-1.916278436562496,6.584910146788706
mp-1018727,HoS2,"[Element Ho, Element S]",2,Ho2 S4,0.0,-1.8926559118749982,6.538729762413428
mp-1018751,LaS2,"[Element La, Element S]",2,La2 S4,0.0,-2.045570708124993,4.951348739781563
mp-1019253,SmSe2,"[Element Se, Element Sm]",2,Sm2 Se4,0.0,-1.8409462043750011,7.119520548659721
mp-1077482,TiH2,"[Element H, Element Ti]",2,Ti2 H4,0.0,-0.44792128472222104,4.01633169304827
mp-1212113,I2N3,"[Element I, Element N]",2,I8 N12,0.0,1.177400332499999,2.099494654567472
mp-1064119,KN,"[Element K, Element N]",2,K2 N2,0.0,1.135708894833332,1.805587788787303
mp-11106,PaAs2,"[Element As, Element Pa]",2,Pa2 As4,0.0,-1.065081468333332,9.642482930601858
mp-1232036,InSe2,"[Element In, Element Se]",2,In2 Se4,0.0,-0.39897752881076504,6.2026518154809605
mp-1071777,SrAl2,"[Element Al, Element Sr]",2,Sr2 Al4,0.0,-0.27072869999999905,2.984378126425873
mp-1147625,InS2,"[Element In, Element S]",2,In2 S4,0.0,-0.33035278296875004,4.883428882659807
mp-1023130,Cu4O3,"[Element Cu, Element O]",2,Cu8 O6,0.0,-0.706408099285714,6.523456492608801
mp-1147746,CoS,"[Element Co, Element S]",2,Co2 S2,0.0,-0.37589248890624904,4.591952859758208
mp-1077365,YTe2,"[Element Te, Element Y]",2,Y2 Te4,0.0,-1.4270797844444432,6.480552798783898
mp-1067475,TiNi,"[Element Ni, Element Ti]",2,Ti2 Ni2,0.0,-0.324108791666666,6.662728363550433
mp-1232117,EuS2,"[Element Eu, Element S]",2,Eu2 S4,0.0,-1.5971625962499991,5.496517413334016
mp-1072274,KC2,"[Element C, Element K]",2,K2 C4,0.0,1.273336406020836,1.4651694095467651
mp-1074652,Mg2Si,"[Element Mg, Element Si]",2,Mg4 Si2,0.0,-0.020515808333333,2.107981914501385
mp-1076964,GdTe2,"[Element Gd, Element Te]",2,Gd2 Te4,0.0,-1.364811198333332,7.668194904602257
mp-1077369,RbC2,"[Element C, Element Rb]",2,Rb2 C4,0.036999999999999006,1.3035154058333331,2.180093728667684
mp-11239,ZrAg,"[Element Ag, Element Zr]",2,Zr2 Ag2,0.0,-0.128847814999996,8.25859208312672
mp-1072729,TmTe2,"[Element Te, Element Tm]",2,Tm2 Te4,0.0,-1.284177106666675,8.186730980511143
mp-1078595,H4W,"[Element H, Element W]",2,H8 W2,0.031199999999999003,0.149702102,9.43143938125846
mp-1147643,CS,"[Element C, Element S]",2,C2 S2,0.0,1.347160340089285,2.791271420818031
mp-1071948,TmS2,"[Element S, Element Tm]",2,Tm2 S4,0.0,-1.8702025518750012,6.8185913170579004
mp-1019266,SmTe2,"[Element Sm, Element Te]",2,Sm2 Te4,0.0,-1.430881646666667,7.407734614051179
mp-1019324,TbTe2,"[Element Tb, Element Te]",2,Tb2 Te4,0.0,-1.363800455000003,7.795072468010777
mp-1025077,TbSe2,"[Element Se, Element Tb]",2,Tb2 Se4,0.0,-1.882308122118053,7.623022804743601
mp-1077033,YbSe2,"[Element Se, Element Yb]",2,Yb2 Se4,0.0,-1.704781174374999,8.357125224055881
mp-1072474,TmSe2,"[Element Se, Element Tm]",2,Tm2 Se4,0.0,-1.727125514375004,8.180964030069745
mp-1182030,BrN,"[Element Br, Element N]",2,Br2 N2,0.0,1.8339505349999992,4.519493445308689
mp-1076966,YbS2,"[Element S, Element Yb]",2,Yb2 S4,0.0,-1.854729943541665,7.005783952475777
mp-1228815,AlRe,"[Element Al, Element Re]",2,Al2 Re2,0.0,-0.382194888749999,12.52322873576359
mp-1232214,YSe2,"[Element Se, Element Y]",2,Y2 Se4,0.0,-1.790772361041665,5.9503953592350936
mp-1323,AlF3,"[Element Al, Element F]",2,Al16 F48,7.4026,-3.851997168593749,2.875641834284692
mp-1329,LaTe2,"[Element La, Element Te]",2,La8 Te16,0.0,-1.679725037777777,6.7503502551607735
mp-1657,UAs2,"[Element As, Element U]",2,U2 As4,0.0,-0.8711032616666661,9.821761529531946
mp-21149,GdO2,"[Element Gd, Element O]",2,Gd2 O4,0.0,-3.099836705,8.542467624531808
mp-19921,PbO,"[Element O, Element Pb]",2,Pb2 O2,1.4635999999999991,-1.469972337031249,8.81022542720316
mp-2078,TiCu,"[Element Cu, Element Ti]",2,Ti2 Cu2,0.0,-0.138510230833333,6.553558170638885
mp-1232216,PmSe2,"[Element Pm, Element Se]",2,Pm2 Se4,0.0,-1.858179575208334,6.907205044315149
mp-1232273,SmS2,"[Element S, Element Sm]",2,Sm2 S4,0.0,-2.001702218333333,5.676101474350517
mp-1232230,EuSe2,"[Element Eu, Element Se]",2,Eu2 Se4,0.0,-1.557903364374998,6.914085857558212
mp-1232237,ScSe2,"[Element Sc, Element Se]",2,Sc2 Se4,0.0,-1.562565103255207,5.440936853953471
mp-1273331,VO,"[Element O, Element V]",2,V4 O4,0.8225,-2.049556012500001,5.163733621982276
mp-20560,CeS,"[Element Ce, Element S]",2,Ce2 S2,0.0,-1.9212367064062472,3.489169596258578
mp-19443,WO3,"[Element O, Element W]",2,W2 O6,1.1503,-2.18494683875,6.883890239478372
mp-20426,Fe2As,"[Element As, Element Fe]",2,Fe4 As2,0.0,-0.064635972499999,7.948233637648245
mp-19867,NpAs2,"[Element As, Element Np]",2,Np2 As4,0.0,-0.9375004945833321,9.798094394034244
mp-20552,Cr2As,"[Element As, Element Cr]",2,Cr4 As2,0.0,-0.04265080583333301,7.408616459247283
mp-1232271,PmS2,"[Element Pm, Element S]",2,Pm2 S4,0.0,-1.9486633318749962,5.462558212807222
mp-13156,HfAg,"[Element Ag, Element Hf]",2,Hf2 Ag2,0.0,-0.11359142749999701,12.358941234292457
mp-20311,FeSe,"[Element Fe, Element Se]",2,Fe2 Se2,0.0,-0.5079187611718751,4.941151906868024
mp-13152,TiSe,"[Element Se, Element Ti]",2,Ti2 Se2,0.0,-1.065546855338541,4.031414397106929
mp-2097,SnO,"[Element O, Element Sn]",2,Sn2 O2,0.4096,-1.629702402499999,6.294342860686033
mp-1232897,CrN,"[Element Cr, Element N]",2,Cr4 N4,0.0,-0.672266594374999,6.165733313919825
mp-1825,Cu2Sb,"[Element Cu, Element Sb]",2,Cu4 Sb2,0.0,0.034371576666664,8.531823838866934
mp-20215,LaS,"[Element La, Element S]",2,La2 S2,0.0,-2.148466323906248,3.224935504641908
mp-20664,Mn2Sb,"[Element Mn, Element Sb]",2,Mn4 Sb2,0.0,-0.21540974465517101,6.947819074886312
mp-22863,CuI,"[Element Cu, Element I]",2,Cu2 I2,1.5721999999999992,-0.329992295833334,5.770785054562077
mp-557835,TlF,"[Element F, Element Tl]",2,Tl2 F2,2.9859,-1.868527027499999,8.759631974416461
mp-567809,AgI,"[Element Ag, Element I]",2,Ag2 I2,1.5986,-0.46134082333333204,5.868414368244994
mp-22917,CuBr,"[Element Br, Element Cu]",2,Cu2 Br2,0.9962000000000001,-0.515792749999999,5.306180220809305
mp-558947,SiO2,"[Element O, Element Si]",2,Si48 O96,5.7972,-3.2574067163194442,1.661650333577991
mp-21273,FeTe,"[Element Fe, Element Te]",2,Fe2 Te2,0.0,-0.270042538333332,6.996625048410066
mp-569765,InBi,"[Element Bi, Element In]",2,In2 Bi2,0.0,-0.010102529999997,8.80117863046383
mp-569858,UBi2,"[Element Bi, Element U]",2,U2 Bi4,0.0,-0.232412631666666,11.736997173776217
mp-2550,NdTe2,"[Element Nd, Element Te]",2,Nd2 Te4,0.0,-1.47192105083333,7.097828547377837
mp-567586,Nd17Au36,"[Element Au, Element Nd]",2,Nd34 Au72,0.0,-0.7675254248584901,12.876978948903098
mp-30500,TiCd,"[Element Cd, Element Ti]",2,Ti2 Cd2,0.0,-0.072274210833331,7.079488865459008
mp-23313,InBi,"[Element Bi, Element In]",2,In2 Bi2,0.0,-0.027260852499999003,8.538577784237997
mp-2350391,PbS,"[Element Pb, Element S]",2,Pb2 S2,1.6745,-0.7249510262499981,3.893559459289583
mp-2707,USb2,"[Element Sb, Element U]",2,U2 Sb4,0.0,-0.514500249999997,9.556548410771606
mp-27757,Be4B,"[Element B, Element Be]",2,Be8 B2,0.0,-0.016717138833333003,1.9709409129725801
mp-21335,UTe2,"[Element Te, Element U]",2,U2 Te4,0.0,-1.024859734999997,8.93556800484522
mp-505536,CeTe2,"[Element Ce, Element Te]",2,Ce2 Te4,0.0,-1.497663264444443,7.134723801485132
mp-571033,NiSe,"[Element Ni, Element Se]",2,Ni2 Se2,0.0,-0.23667956953124902,6.294033620599634
mp-413,UP2,"[Element P, Element U]",2,U2 P4,0.0,-0.9250981203174621,8.794401952223259
mp-2766207,Ag2S,"[Element Ag, Element S]",2,Ag4 S2,0.6684999999999991,-0.104826904270834,6.087581006200281
mp-505531,FeS,"[Element Fe, Element S]",2,Fe2 S2,0.0,-0.7574410312499991,4.294013387059193
mp-569679,ZnSe,"[Element Se, Element Zn]",2,Zn2 Se2,1.9671,-0.791561253671875,4.681030279805861
mp-2394167,VN,"[Element N, Element V]",2,V2 N2,0.0,-1.177218824375,6.136931758801917
mp-7698,NdS2,"[Element Nd, Element S]",2,Nd2 S4,0.0,-1.9382911068749942,5.324286400050281
mp-580226,CuSe,"[Element Cu, Element Se]",2,Cu2 Se2,0.0,-0.131382814531249,6.108131817601714
mp-7568,ThSb2,"[Element Sb, Element Th]",2,Th2 Sb4,0.0,-0.923205481666665,8.832508840690004
mp-7487,BaO,"[Element Ba, Element O]",2,Ba2 O2,2.7678000000000003,-2.691978065,5.689560870391941
mp-604910,MnSe,"[Element Mn, Element Se]",2,Mn2 Se2,0.0,-0.9262354942726301,5.452820467407736
mp-726332,SN,"[Element N, Element S]",2,S2 N2,0.0,1.1264524434375,3.173805699094505
mp-604908,CoSe,"[Element Co, Element Se]",2,Co2 Se2,0.0,-0.18550216203125,6.3777218566238
mp-640045,Ti8Bi9,"[Element Bi, Element Ti]",2,Ti16 Bi18,0.0,-0.210500001078431,9.558111245352348
mp-7192,Sc2Sb,"[Element Sb, Element Sc]",2,Sc4 Sb2,0.0,-0.8804195516666671,5.017118603621459
mp-610522,Mn2As,"[Element As, Element Mn]",2,Mn4 As2,0.0,-0.16062474778735703,7.413349833293616
mp-600015,SiO2,"[Element O, Element Si]",2,Si24 O48,5.8166,-3.253618028888889,1.6879564718331301
mp-622570,Ti2Cu3,"[Element Cu, Element Ti]",2,Ti4 Cu6,0.0,-0.127568277666665,7.01682967702633
mp-7474,Cu2As,"[Element As, Element Cu]",2,Cu4 As2,0.0,0.016657334166668,8.01353659964995
mp-604914,VSe,"[Element Se, Element V]",2,V2 Se2,0.0,-0.682917851406248,4.984251147331247
mp-571335,ThBi2,"[Element Bi, Element Th]",2,Th2 Bi4,0.0,-0.5219068866666751,11.130082903211036
mp-725294,TeI7,"[Element I, Element Te]",2,Te2 I14,0.0,-0.267606461458333,3.496388091465917
mp-7097,ThAs2,"[Element As, Element Th]",2,Th2 As4,0.0,-1.215635171666666,8.740376899259005
mp-8936,SnSe,"[Element Se, Element Sn]",2,Sn2 Se2,0.8559,-0.36590708453125104,3.2525710594222472
mp-604915,CrSe,"[Element Cr, Element Se]",2,Cr2 Se2,0.0,-0.536535983671874,5.520958475432138
mp-7859,ZrS,"[Element S, Element Zr]",2,Zr2 S2,0.0,-1.684560418749999,5.681257573835984
mp-639690,PuS2,"[Element Pu, Element S]",2,Pu2 S4,0.0,-1.594299316249994,8.342161531734142
mp-8732,Ta2Se,"[Element Se, Element Ta]",2,Ta4 Se2,0.0,-0.512051232909721,12.499426177623938
mp-7135,TbS2,"[Element S, Element Tb]",2,Tb2 S4,0.0,-1.9216384218750022,6.215447364680218
mp-849092,NiS2,"[Element Ni, Element S]",2,Ni2 S4,0.0,-0.285924461666666,3.869447963898158
mp-600072,SiO2,"[Element O, Element Si]",2,Si48 O96,5.8422,-3.253222445625,1.476837650997569
mp-999142,SnO,"[Element O, Element Sn]",2,Sn2 O2,0.0,-1.184207554999999,6.851569687613208
mp-973750,LuTe2,"[Element Lu, Element Te]",2,Lu2 Te4,0.0,-1.298998095,8.40588449460131
mp-999133,TaPd,"[Element Pd, Element Ta]",2,Ta2 Pd2,0.0,-0.36691171366666,14.516379336931651
mp-998972,TiAu,"[Element Au, Element Ti]",2,Ti2 Au2,0.0,-0.47590774083333104,12.071032950993597
mp-999295,PrN,"[Element N, Element Pr]",2,Pr2 N2,1.1276,-1.274247987708332,6.972208740828422
mp-975652,PrTe2,"[Element Pr, Element Te]",2,Pr2 Te4,0.0,-1.485817645555556,6.932180078418851
mp-9978,ErSe2,"[Element Er, Element Se]",2,Er2 Se4,0.0,-1.744227473819445,8.073642994068022
mp-1213665,Eu2Sb3,"[Element Eu, Element Sb]",2,Eu16 Sb24,0.0,-0.9314560042500021,7.054475928056563
mp-1098705,CeSe2,"[Element Ce, Element Se]",2,Ce4 Se8,0.24929999999999902,-1.298159611562499,2.583109317940838