material_id,formula_pretty,elements,nelements,composition,band_gap,formation_energy_per_atom,density
mp-1105572,Ce2Co17,"[Element Ce, Element Co]",2,Ce2 Co17,0.0,-0.06208286578947401,8.678131100378144
mp-1105910,Pu2Zn17,"[Element Pu, Element Zn]",2,Pu2 Zn17,0.0,-0.10867245513157801,8.899578586206617
mp-1178963,TiF3,"[Element F, Element Ti]",2,Ti1 F3,0.0,-3.073418954583333,3.761511051835159
mp-1189465,Tm2Co7,"[Element Co, Element Tm]",2,Tm4 Co14,0.0,-0.166105440555557,9.846344459834382
mp-1184066,CsTh,"[Element Cs, Element Th]",2,Cs1 Th1,0.0,0.8595592060344821,6.68594844089935
mp-1190346,La2Rh7,"[Element La, Element Rh]",2,La4 Rh14,0.0,-0.44070264611111104,10.085894954806154
mp-1188546,Th2Co7,"[Element Co, Element Th]",2,Th4 Co14,0.0,-0.088646941944438,10.981994224004701
mp-1189067,Tb2Co17,"[Element Co, Element Tb]",2,Tb2 Co17,0.0,-0.070512017017543,9.02658286057038
mp-1185959,MgS2,"[Element Mg, Element S]",2,Mg2 S4,1.133699999999999,-1.154441889999999,2.388487798502099
mp-1188496,Dy2Co7,"[Element Co, Element Dy]",2,Dy4 Co14,0.0,-0.13027182370370202,9.57668627655686
mp-1188219,Er2Ni7,"[Element Er, Element Ni]",2,Er4 Ni14,0.0,-0.409602309999998,9.874530642107405
mp-1186405,PaNi,"[Element Ni, Element Pa]",2,Pa1 Ni1,0.0,-0.06758510249999701,11.925897435746986
mp-1188478,Sm2Ni7,"[Element Ni, Element Sm]",2,Sm4 Ni14,0.0,-0.33961915611111,9.096305262261799
mp-1189379,Tb2Ni7,"[Element Ni, Element Tb]",2,Tb4 Ni14,0.0,-0.38667413925925803,9.586498588482426
mp-1189779,Pr2Ni7,"[Element Ni, Element Pr]",2,Pr4 Ni14,0.0,-0.279879873148146,8.665790038953618
mp-1188550,Ce2Co7,"[Element Ce, Element Co]",2,Ce4 Co14,0.0,-0.121471789444444,9.01718274764357
mp-1186890,Rb3Pu,"[Element Pu, Element Rb]",2,Rb3 Pu1,0.0,0.8171444171875021,3.284809406242426
mp-1189402,Ta2Be17,"[Element Be, Element Ta]",2,Ta2 Be17,0.0,-0.18140817945614002,5.118447626982379
mp-1190915,TcCl3,"[Element Cl, Element Tc]",2,Tc6 Cl18,0.6643,-0.8464455577083331,3.1395776171372622
mp-1189382,La2Co7,"[Element Co, Element La]",2,La4 Co14,0.0,0.007871322252416001,8.44874805937382
mp-1190300,Ho2Ni7,"[Element Ho, Element Ni]",2,Ho4 Ni14,0.0,-0.39716890611110806,9.762915641138344
mp-1188333,Y2Co7,"[Element Co, Element Y]",2,Y4 Co14,0.0,-0.030279640000000003,7.631364252881966
mp-1189139,Th2Fe7,"[Element Fe, Element Th]",2,Th4 Fe14,0.0,-0.06094536833333201,10.134974919178434
mp-1190097,Ce2Ir7,"[Element Ce, Element Ir]",2,Ce4 Ir14,0.0,-0.548267198333333,16.641911468640615
mp-1190297,DyGa3,"[Element Dy, Element Ga]",2,Dy4 Ga12,0.0,-0.577084692500001,8.162832989990255
mp-1190187,Nd2Ni7,"[Element Nd, Element Ni]",2,Nd4 Ni14,0.0,-0.307100926666665,8.669193041784718
mp-1188908,La2Ni7,"[Element La, Element Ni]",2,La4 Ni14,0.0,-0.315338964999999,8.516142279159387
mp-1190236,La2Ir7,"[Element Ir, Element La]",2,La4 Ir14,0.0,-0.47201830055555605,16.027154930944686
mp-1190284,Bi8Se9,"[Element Bi, Element Se]",2,Bi8 Se9,0.0025,-0.38122222244485604,7.541515401189527
mp-1189949,Lu2Co7,"[Element Co, Element Lu]",2,Lu4 Co14,0.0,-0.185575828703704,10.16400680226731
mp-1189958,TbAl3,"[Element Al, Element Tb]",2,Tb5 Al15,0.0,-0.46864829299999805,5.181760423731233
mp-1188750,Nd2Ir7,"[Element Ir, Element Nd]",2,Nd4 Ir14,0.0,-0.5182861055555591,16.723161691114747
mp-1189920,Th2Ni7,"[Element Ni, Element Th]",2,Th4 Ni14,0.0,-0.43376516888888705,10.916985359502856
mp-1191011,Pr5Ni19,"[Element Ni, Element Pr]",2,Pr5 Ni19,0.0,-0.272778711597221,8.529069373774078
mp-1216270,VPt3,"[Element Pt, Element V]",2,V1 Pt3,0.0,-0.28828733249999905,17.475344293655105
mp-1192051,Nd5Ni19,"[Element Nd, Element Ni]",2,Nd5 Ni19,0.0,-0.29986782989583205,8.818120663369925
mp-1215529,ZnCu3,"[Element Cu, Element Zn]",2,Zn1 Cu3,0.0,-0.020386817499999002,8.894196087016239
mp-1194918,Bi4Ir,"[Element Bi, Element Ir]",2,Bi36 Ir9,0.0,-0.006417381333327,10.238523247447974
mp-1215579,ZnPd4,"[Element Pd, Element Zn]",2,Zn1 Pd4,0.0,-0.230506275999999,10.747935391301072
mp-1216236,VPt,"[Element Pt, Element V]",2,V1 Pt1,0.0,-0.299605394999999,14.037852660273506
mp-1216290,VPd3,"[Element Pd, Element V]",2,V1 Pd3,0.0,-0.171948284999999,10.309602575786599
mp-1215359,Zr5Se8,"[Element Se, Element Zr]",2,Zr5 Se8,0.0,-1.46164559903846,5.501273204503962
mp-1191306,Sm5Co19,"[Element Co, Element Sm]",2,Sm5 Co19,0.0,-0.023639737291668003,9.00425308488036
mp-1190965,Pr5Co19,"[Element Co, Element Pr]",2,Pr5 Co19,0.0,0.022598458444538002,8.439918595876636
mp-1201,Sb2Te3,"[Element Sb, Element Te]",2,Sb2 Te3,0.13140000000000002,-0.383199846000002,6.120536415946441
mp-1215582,ZnNi4,"[Element Ni, Element Zn]",2,Zn1 Ni4,0.0,-0.029161445999999,8.863996152976506
mp-1216391,VAu,"[Element Au, Element V]",2,V1 Au1,0.0,0.15470798500000102,12.955689123644751
mp-1191158,Nd5Co19,"[Element Co, Element Nd]",2,Nd5 Co19,0.0,0.090753954218752,8.601925829880773
mp-1215575,ZnAu4,"[Element Au, Element Zn]",2,Zn1 Au4,0.0,-0.067985159000005,16.10196206669109
mp-1192757,Cu7Hg6,"[Element Cu, Element Hg]",2,Cu14 Hg12,0.0,0.13998003615384602,12.538276796322693
mp-1205432,Tb2Co7,"[Element Co, Element Tb]",2,Tb4 Co14,0.0,-0.120553647592592,9.451867897627476
mp-1207019,BrO,"[Element Br, Element O]",2,Br1 O1,0.0,0.7429938999999991,5.335757120593981
mp-1215265,ZrIn,"[Element In, Element Zr]",2,Zr1 In1,0.0,-0.285791487499999,7.363629503293501
mp-1215556,YbEu,"[Element Eu, Element Yb]",2,Yb1 Eu1,0.0,0.10802901000000201,7.854291511347129
mp-1215848,Yb2C,"[Element C, Element Yb]",2,Yb2 C1,0.0,-0.537297279999999,9.432437836223134
mp-1215899,YTh,"[Element Th, Element Y]",2,Y1 Th1,0.0,0.057549765000004006,8.262647091077941
mp-1216313,VNi,"[Element Ni, Element V]",2,V1 Ni1,0.0,0.0024165620833320003,7.597136040713457
mp-1216296,VPd4,"[Element Pd, Element V]",2,V1 Pd4,0.0,-0.15748292399999803,10.550245519433933
mp-1216317,VNi3,"[Element Ni, Element V]",2,V1 Ni3,0.0,0.0012264650000000002,8.40138637974385
mp-1216400,VCo4,"[Element Co, Element V]",2,V1 Co4,0.0,0.12921132466666702,8.429408884247453
mp-1216575,Tl4Bi,"[Element Bi, Element Tl]",2,Tl4 Bi1,0.0,0.0008548533333390001,10.798086256457431
mp-1216519,TlHg,"[Element Hg, Element Tl]",2,Tl1 Hg1,0.0,0.006069701249998001,11.87377510866639
mp-1216472,V4N3,"[Element N, Element V]",2,V4 N3,0.0,-1.07457137517857,5.986728425026579
mp-1216471,V4C3,"[Element C, Element V]",2,V4 C3,0.0,-0.5271079002380951,5.726917903390932
mp-1217106,Ti2C,"[Element C, Element Ti]",2,Ti2 C1,0.0,-0.712459007777778,4.519952357026281
mp-1217258,ThSc,"[Element Sc, Element Th]",2,Th1 Sc1,0.0,0.076185032499999,8.074726771817096
mp-1217474,TbTh,"[Element Tb, Element Th]",2,Tb1 Th1,0.0,0.026952855000004,10.179791059296909
mp-1216527,TlIn,"[Element In, Element Tl]",2,Tl1 In1,0.0,0.026936155000001002,9.425095746282205
mp-1217443,Te2Pd7,"[Element Pd, Element Te]",2,Te6 Pd21,0.0,-0.12677610841696402,9.766195480799555
mp-1217395,Th4C3,"[Element C, Element Th]",2,Th4 C3,0.0,-0.387404339999997,10.380537869488531
mp-1217706,Tb2Ce,"[Element Ce, Element Tb]",2,Tb2 Ce1,0.0,0.021100406666666002,7.808174658568337
mp-1216530,TlPb,"[Element Pb, Element Tl]",2,Tl1 Pb1,0.0,0.0014120250000070002,11.16907313846128
mp-1216405,VCo3,"[Element Co, Element V]",2,V1 Co3,0.0,0.145735629583334,8.290084369843408
mp-1217413,TcPt,"[Element Pt, Element Tc]",2,Tc1 Pt1,0.0,-0.077824940624999,16.18712555998265
mp-1217954,TaNi,"[Element Ni, Element Ta]",2,Ta13 Ni13,0.0,-0.24653644083974302,14.083728664670831
mp-1217298,Th5C,"[Element C, Element Th]",2,Th5 C1,0.0,-0.137078266666662,11.50531942569128
mp-1217090,Ti8C5,"[Element C, Element Ti]",2,Ti8 C5,0.0,-0.8005964125641011,4.5644181980586875
mp-1216546,Tm2C,"[Element C, Element Tm]",2,Tm2 C1,0.0,-0.506237413333333,9.042570282171589
mp-1217267,ThHg,"[Element Hg, Element Th]",2,Th1 Hg1,0.0,-0.17844025791665502,12.528674341397773
mp-1217379,Th5C4,"[Element C, Element Th]",2,Th5 C4,0.0,-0.388287256666665,10.579390175757954
mp-1216560,Tl4Sn,"[Element Sn, Element Tl]",2,Tl4 Sn1,0.0,0.045918155999999,10.531093820089339
mp-1217424,Tc3Pd,"[Element Pd, Element Tc]",2,Tc3 Pd1,0.0,0.049651773750003,11.25232071051985
mp-1218357,SrCa,"[Element Ca, Element Sr]",2,Sr1 Ca1,0.0,0.051083300000000005,2.126509687979126
mp-1218401,SrC2,"[Element C, Element Sr]",2,Sr1 C2,0.0,2.526630361296296,3.414334777928855
mp-1217441,Tc4N3,"[Element N, Element Tc]",2,Tc4 N3,0.0,0.086791708690477,9.77834313876625
mp-1217896,TaPd,"[Element Pd, Element Ta]",2,Ta1 Pd1,0.0,-0.14720079116666002,14.272651050043308
mp-1218179,TaCo,"[Element Co, Element Ta]",2,Ta13 Co13,0.0,-0.23074818366666203,14.442669703265478
mp-1218218,TaFe,"[Element Fe, Element Ta]",2,Ta13 Fe13,0.0,-0.186261669435894,14.044511229243913
mp-1219836,Pr2Y,"[Element Pr, Element Y]",2,Pr2 Y1,0.0,0.056069095555557,5.783419414919326
mp-1218996,SmTh,"[Element Sm, Element Th]",2,Sm1 Th1,0.0,0.036626519999998004,9.730024331432169
mp-1219709,PtAu,"[Element Au, Element Pt]",2,Pt1 Au1,0.0,0.012786540000007,19.896395541169756
mp-1219333,ScC2,"[Element C, Element Sc]",2,Sc1 C2,0.0,0.14783715866666802,4.222422039896862
mp-1219463,SbTe,"[Element Sb, Element Te]",2,Sb1 Te1,0.0,-0.177488693333332,6.685302873859346
mp-1219484,SbPb4,"[Element Pb, Element Sb]",2,Sb1 Pb4,0.0,0.065220747999995,10.179774389340926
mp-1219773,Pu3Al,"[Element Al, Element Pu]",2,Pu3 Al1,0.0,0.22241584578124202,17.78769263238777
mp-1220038,OsPt3,"[Element Os, Element Pt]",2,Os1 Pt3,0.0,0.077709582499998,20.986528090270266
mp-1219517,ReMo3,"[Element Mo, Element Re]",2,Re1 Mo3,0.0,0.30378106864584,12.423886569641404
mp-1219734,PtRh,"[Element Pt, Element Rh]",2,Pt1 Rh1,0.0,-0.010429924999996001,16.995723292123937
mp-1219908,PdPt,"[Element Pd, Element Pt]",2,Pd1 Pt1,0.0,-0.04271062499999,16.559812446969275
mp-1219940,Pd4W,"[Element Pd, Element W]",2,Pd4 W1,0.0,0.006930807999998001,13.413971816766798
mp-1219935,PdW,"[Element Pd, Element W]",2,Pd1 W1,0.0,0.162127775000001,15.418246140974167
mp-1219653,PuZr,"[Element Pu, Element Zr]",2,Pu1 Zr1,0.0,0.12729563999999902,11.37952678522212
mp-1219177,Sm2C,"[Element C, Element Sm]",2,Sm2 C1,0.0,-0.29080740333333205,6.942452856961151
mp-1219535,ReIr3,"[Element Ir, Element Re]",2,Re1 Ir3,0.0,-0.084482571875007,21.595867988779684
mp-1219217,SiPd4,"[Element Pd, Element Si]",2,Si1 Pd4,0.0,-0.257172511833331,10.003752270016381
mp-1220052,NiPt,"[Element Ni, Element Pt]",2,Ni1 Pt1,0.0,-0.05509396999999901,15.697366090142706
mp-1218937,SnPd3,"[Element Pd, Element Sn]",2,Sn1 Pd3,0.0,-0.09919581000000101,10.38693842737166
mp-1219741,PrTh,"[Element Pr, Element Th]",2,Pr1 Th1,0.0,0.065650449166675,9.157567093859049
mp-1220054,NiRh,"[Element Ni, Element Rh]",2,Ni1 Rh1,0.0,0.093865319999999,10.90935775221667
mp-1219925,PdRh,"[Element Pd, Element Rh]",2,Pd1 Rh1,0.0,0.09264933,11.734463073808108
mp-1219920,PdAu,"[Element Au, Element Pd]",2,Pd1 Au1,0.0,-0.07237694500000201,15.502487211764345
mp-1219507,RePt,"[Element Pt, Element Re]",2,Re1 Pt1,0.0,-0.001967701249995,20.80143376284839
mp-1219522,RuRh4,"[Element Rh, Element Ru]",2,Ru1 Rh4,0.0,0.013253403333331,12.004916811807648
mp-1220039,OsPt4,"[Element Os, Element Pt]",2,Os1 Pt4,0.0,0.021775896000019,20.91694782886898
mp-1219285,SiNi3,"[Element Ni, Element Si]",2,Si1 Ni3,0.0,-0.142502518750001,7.64247847064012
mp-1219711,PtW,"[Element Pt, Element W]",2,Pt1 W1,0.0,-0.054905329999996005,19.91145394563403
mp-1219657,PuTh,"[Element Pu, Element Th]",2,Pu1 Th1,0.0,0.9902512049999921,13.372419778463101
mp-1220799,NbNi,"[Element Nb, Element Ni]",2,Nb13 Ni13,0.0,-0.203423711923077,8.842814700639183
mp-1220515,Nb4C3,"[Element C, Element Nb]",2,Nb4 C3,0.0,-0.543658968571427,7.612378778636251
mp-1220390,NbAu4,"[Element Au, Element Nb]",2,Nb1 Au4,0.0,-0.027056962,16.186225004786873
mp-1221429,MoPd3,"[Element Mo, Element Pd]",2,Mo1 Pd3,0.0,-0.026204274999997,11.462492221117396
mp-1220081,Ni4Ru,"[Element Ni, Element Ru]",2,Ni4 Ru1,0.0,0.104569302000001,9.71234438946005
mp-1221235,Na3Si34,"[Element Na, Element Si]",2,Na3 Si34,0.0,0.040541970540539006,2.159581082955034
mp-1221426,MoIr4,"[Element Ir, Element Mo]",2,Mo1 Ir4,0.0,-0.093350502999999,19.415721716446527
mp-1220076,Ni4Ge,"[Element Ge, Element Ni]",2,Ni4 Ge1,0.0,0.115747871999997,8.747753602817639
mp-1221422,MoPd,"[Element Mo, Element Pd]",2,Mo1 Pd1,0.0,0.10997056749999601,10.845452794161547
mp-1221488,Mo4C3,"[Element C, Element Mo]",2,Mo4 C3,0.0,0.042606316071433004,8.638872067816726
mp-1221425,MoPt3,"[Element Mo, Element Pt]",2,Mo1 Pt3,0.0,-0.159328524999992,18.05141253927555
mp-1220793,Na5Si34,"[Element Na, Element Si]",2,Na5 Si34,0.0,0.013398172564100001,2.241315645076128
mp-1220270,Nd2Tm,"[Element Nd, Element Tm]",2,Nd2 Tm1,0.0,0.044626651666665004,7.517426061038192
mp-1220069,NdTh,"[Element Nd, Element Th]",2,Nd1 Th1,0.0,0.048836811250005004,9.369864173685052
mp-1221469,Mo4Ir,"[Element Ir, Element Mo]",2,Mo4 Ir1,0.0,0.19758866599999,12.119558102836224
mp-1220074,Ni3Mo,"[Element Mo, Element Ni]",2,Ni3 Mo1,0.0,0.19676795624999902,9.257027075671663
mp-1220057,NiPd,"[Element Ni, Element Pd]",2,Ni1 Pd1,0.0,0.042641950000003,10.410758687475921
mp-1221111,NbFe,"[Element Fe, Element Nb]",2,Nb13 Fe13,0.0,-0.10820271807692201,8.52821508981952
mp-1220071,NiIr,"[Element Ir, Element Ni]",2,Ni1 Ir1,0.0,0.035063555,16.507951373588387
mp-1220954,NaO2,"[Element Na, Element O]",2,Na1 O2,0.0,-0.791929417126436,2.458367381224655
mp-1221442,MoPd4,"[Element Mo, Element Pd]",2,Mo1 Pd4,0.0,-0.035522127999993006,11.202820774796464
mp-1220079,Ni2H,"[Element H, Element Ni]",2,Ni2 H1,0.0,0.035812870416667,8.572749258850552
mp-1220205,Nd5S4,"[Element Nd, Element S]",2,Nd5 S4,0.0,-1.9885035487499931,6.052790928958424
mp-1220274,Nd2Y,"[Element Nd, Element Y]",2,Nd2 Y1,0.0,0.041945528333333,5.9986333010688995
mp-1220285,NbPt4,"[Element Nb, Element Pt]",2,Nb1 Pt4,0.0,-0.312096008499997,17.978014115261484
mp-1220332,NbPd,"[Element Nb, Element Pd]",2,Nb1 Pd1,0.0,-0.12110831999999701,9.852773463980851
mp-1220368,NbPd4,"[Element Nb, Element Pd]",2,Nb1 Pd4,0.0,-0.163164940666666,10.761010379026754
mp-1221525,Mo2N,"[Element Mo, Element N]",2,Mo2 N1,0.0,-0.33858732833333605,9.504705393844391
mp-1221570,MnZn3,"[Element Mn, Element Zn]",2,Mn1 Zn3,0.0,-0.008375067370689,7.20724264300139
mp-1221725,Mn4Cu,"[Element Cu, Element Mn]",2,Mn4 Cu1,0.0,0.135450011655171,8.451698257273716
mp-1223666,Ir4W,"[Element Ir, Element W]",2,Ir4 W1,0.0,-0.064656842999988,21.26848501446833
mp-1221588,MnNi,"[Element Mn, Element Ni]",2,Mn1 Ni1,0.0,-0.179157909885056,8.648202281021975
mp-1223677,Ir4Os,"[Element Ir, Element Os]",2,Ir4 Os1,0.0,0.026585211999997003,21.951406288694855
mp-1222034,MgAg4,"[Element Ag, Element Mg]",2,Mg1 Ag4,0.0,-0.026510542333331003,8.252895635358094
mp-1223675,IrPd,"[Element Ir, Element Pd]",2,Ir1 Pd1,0.0,0.11000630500000501,16.69690933191262
mp-1221851,Mn3Ga,"[Element Ga, Element Mn]",2,Mn3 Ga1,0.0,0.031986499913793,8.028258112728171
mp-1222310,Lu2C,"[Element C, Element Lu]",2,Lu2 C1,0.0,-0.371191169444445,9.735287025066512
mp-1223768,InNi3,"[Element In, Element Ni]",2,In1 Ni3,0.0,0.276207170000001,8.789728317989644
mp-1221687,MnAu3,"[Element Au, Element Mn]",2,Mn1 Au3,0.0,-0.16128096862068703,15.146516159330867
mp-1221964,MgPd3,"[Element Mg, Element Pd]",2,Mg1 Pd3,0.0,-0.29660816624999803,9.07501809934438
mp-1222127,Mg4Sc,"[Element Mg, Element Sc]",2,Mg4 Sc1,0.0,0.052057889,2.015641429312343
mp-1221711,MnAu4,"[Element Au, Element Mn]",2,Mn1 Au4,0.0,-0.12653325089654502,15.775498462496527
mp-1222005,Mn3Ge,"[Element Ge, Element Mn]",2,Mn3 Ge1,0.0,0.184578062801723,7.811087907185562
mp-1223654,InPb,"[Element In, Element Pb]",2,In1 Pb1,0.0,0.020862960000002,9.175801492002154
mp-1221576,MnPd3,"[Element Mn, Element Pd]",2,Mn1 Pd3,0.0,-0.088185206982758,10.095606115610698
mp-1222922,LaCe,"[Element Ce, Element La]",2,La1 Ce1,0.0,0.08540808499999701,7.197393831294743
mp-1221545,MnPt,"[Element Mn, Element Pt]",2,Mn1 Pt1,0.0,-0.007661063965517001,15.384294711441385
mp-1222022,MgAg3,"[Element Ag, Element Mg]",2,Mg1 Ag3,0.0,-0.039555932499998,7.770681553166133
mp-1222403,LiAu,"[Element Au, Element Li]",2,Li1 Au1,0.0,-0.42561290333333,10.494755470169604
mp-1222419,Li4Mg,"[Element Li, Element Mg]",2,Li4 Mg1,0.0,-0.009990516333333001,0.8314615775916071
mp-1223656,InPt,"[Element In, Element Pt]",2,In1 Pt1,0.0,-0.36572020312500003,13.704896045009546
mp-1222495,Li3Cd,"[Element Cd, Element Li]",2,Li3 Cd1,0.0,-0.0756709525,2.72203897980603
mp-1222693,LaTh,"[Element La, Element Th]",2,La1 Th1,0.0,0.042456757500005,9.092585689996671
mp-1222945,LaCe4,"[Element Ce, Element La]",2,La1 Ce4,0.0,0.075491097000002,8.39458172856335
mp-1223702,InPd3,"[Element In, Element Pd]",2,In1 Pd3,0.0,-0.178281654999999,10.541684375097049
mp-1222128,Mg3In,"[Element In, Element Mg]",2,Mg3 In1,0.0,0.0013528770833330002,3.289027917259368
mp-1221583,MnIr,"[Element Ir, Element Mn]",2,Mn1 Ir1,0.0,-0.053867468965517,15.926079710024855
mp-1221812,Mn4Ga,"[Element Ga, Element Mn]",2,Mn4 Ga1,0.0,0.055215500344826,8.27850082955435
mp-1223665,IrPt,"[Element Ir, Element Pt]",2,Ir1 Pt1,0.0,0.081434785000006,21.280424520445873
mp-1222259,LuTh,"[Element Lu, Element Th]",2,Lu1 Th1,0.0,0.039340661666678,11.049087742054219
mp-1223819,InAg4,"[Element Ag, Element In]",2,In1 Ag4,0.0,0.055501302333331004,9.419328775062283
mp-1223919,IrRh,"[Element Ir, Element Rh]",2,Ir1 Rh1,0.0,-0.024315764999997002,17.455242803145197
mp-1224002,HgPt4,"[Element Hg, Element Pt]",2,Hg1 Pt4,0.0,0.09326486099999401,19.533623911713512
mp-1223860,IrRu,"[Element Ir, Element Ru]",2,Ir1 Ru1,0.0,-0.018448662499999,17.47790243112007
mp-1223945,HgAu4,"[Element Au, Element Hg]",2,Hg1 Au4,0.0,0.054645634499996,17.71981503518184
mp-1224869,Gd2C,"[Element C, Element Gd]",2,Gd2 C1,0.0,-0.338883196666661,7.6805411199277795
mp-1224108,HgPb4,"[Element Hg, Element Pb]",2,Hg1 Pb4,0.0,0.023017000499999003,11.36255360265119
mp-1224936,Fe15O16,"[Element Fe, Element O]",2,Fe15 O16,1.4826000000000001,-1.434463190645161,5.279270051147933
mp-1224812,GaCo4,"[Element Co, Element Ga]",2,Ga1 Co4,0.0,0.07788964100000001,8.727150322827569
mp-1224827,Fe3Ni,"[Element Fe, Element Ni]",2,Fe3 Ni1,0.0,0.086761082500001,8.347882740746217
mp-1224967,FeIr,"[Element Fe, Element Ir]",2,Fe1 Ir1,0.0,0.014803875000001002,15.16284685641845
mp-1224977,FeCu4,"[Element Cu, Element Fe]",2,Fe1 Cu4,0.0,0.061598886000000005,8.711661777063359
mp-1224766,Fe3Pt,"[Element Fe, Element Pt]",2,Fe3 Pt1,0.0,0.036371405000001,11.382866585219642
mp-1224802,GaPd,"[Element Ga, Element Pd]",2,Ga1 Pd1,0.0,-0.5403760425,9.433584875777397
mp-1224956,FeAg,"[Element Ag, Element Fe]",2,Fe1 Ag1,0.0,0.41459252416666803,8.917302751536443
mp-1225044,Er2C,"[Element C, Element Er]",2,Er2 C1,0.0,-0.318670341666665,8.790781515986057
mp-1224847,FeRh,"[Element Fe, Element Rh]",2,Fe1 Rh1,0.0,0.03103511,9.777377221848583
mp-1224976,FeNi,"[Element Fe, Element Ni]",2,Fe1 Ni1,0.0,0.0014240000000000001,8.397919682739822
mp-1225001,Fe5O8,"[Element Fe, Element O]",2,Fe5 O8,0.0,-1.456270852307692,5.164421887042491
mp-1224388,Hf3N2,"[Element Hf, Element N]",2,Hf3 N2,0.0,-1.683426963500005,13.61624986235148
mp-1225203,Fe4N,"[Element Fe, Element N]",2,Fe4 N1,0.0,0.08903561300000101,8.114291603029981
mp-1223797,HoTh,"[Element Ho, Element Th]",2,Ho1 Th1,0.0,0.030675892500006,10.485055971821737
mp-1224413,H3Pd4,"[Element H, Element Pd]",2,H3 Pd4,0.0,-0.06352785660714101,10.514118919112848
mp-1225078,FeNi3,"[Element Fe, Element Ni]",2,Fe1 Ni3,0.0,-0.011058395,8.715478798247746
mp-1224883,FePd3,"[Element Fe, Element Pd]",2,Fe1 Pd3,0.0,-0.06243295249999801,10.554104711085811
mp-1224832,GaCu4,"[Element Cu, Element Ga]",2,Ga1 Cu4,0.0,0.015798405666667,8.491940587885672
mp-1224962,FeAu,"[Element Au, Element Fe]",2,Fe1 Au1,0.0,0.25060891,13.604631208906012
mp-1226076,CoNi,"[Element Co, Element Ni]",2,Co1 Ni1,0.0,0.014804099999999001,9.218965014989857
mp-1225701,CuPd,"[Element Cu, Element Pd]",2,Cu1 Pd1,0.0,-0.077466425,10.524670472881013
mp-1225764,Eu3Pd,"[Element Eu, Element Pd]",2,Eu3 Pd1,0.0,-0.305628247499996,6.177275428251157
mp-1225796,Cu4Se3,"[Element Cu, Element Se]",2,Cu4 Se3,0.0,-0.08696829340773601,6.8597851046899905