material_id,formula_pretty,elements,nelements,composition,band_gap,formation_energy_per_atom,density
mp-1188076,ThMg149,"[Element Mg, Element Th]",2,Th1 Mg149,0.0234,0.012710905633333,1.861499298054505
mp-1187458,TcPt,"[Element Pt, Element Tc]",2,Tc1 Pt1,0.0,-0.09513529062499501,16.1781829839038
mp-1187372,TbSm,"[Element Sm, Element Tb]",2,Tb1 Sm1,0.0,0.007156114999997001,7.520036947427449
mp-1187356,TbNd,"[Element Nd, Element Tb]",2,Tb1 Nd1,0.0,0.026372971250001,7.338150928052139
mp-1187978,ZnCo,"[Element Co, Element Zn]",2,Zn1 Co1,0.0,0.061695744772727004,8.407542031358526
mp-1187387,TbPu,"[Element Pu, Element Tb]",2,Tb1 Pu1,0.0,0.15975424500000202,10.436156187894095
mp-1187910,ZnOs,"[Element Os, Element Zn]",2,Zn1 Os1,0.0,0.17951487500000501,14.909755412047351
mp-1187983,ZnRe,"[Element Re, Element Zn]",2,Zn1 Re1,0.0,0.16816816895833803,14.21395190382892
mp-1187763,UF,"[Element F, Element U]",2,U1 F1,0.0,-1.8079007955555682,13.628150568511671
mp-1187749,UTl,"[Element Tl, Element U]",2,U1 Tl1,0.0,0.30535501333332604,15.004434416146456
mp-1187974,ZnAg,"[Element Ag, Element Zn]",2,Zn1 Ag1,0.0,-0.010179864999999,9.115697700672794
mp-1187794,UBr,"[Element Br, Element U]",2,U1 Br1,0.0,-0.577196127499997,11.20411683943462
mp-1188082,YMg149,"[Element Mg, Element Y]",2,Y1 Mg149,0.2723,0.004170051166667001,1.7869091373265582
mp-1187907,YbBr,"[Element Br, Element Yb]",2,Yb1 Br1,0.0,-1.121060791249998,8.720123597916773
mp-1187791,SmMg149,"[Element Mg, Element Sm]",2,Sm1 Mg149,0.21370000000000003,0.005108132933333001,1.803358366826596
mp-1187365,TbPa,"[Element Pa, Element Tb]",2,Tb1 Pa1,0.0,0.20550873999999902,11.810632951376904
mp-1187780,UTi,"[Element Ti, Element U]",2,U1 Ti1,0.0,0.134252137500006,12.36439449478891
mp-1188078,TbMg149,"[Element Mg, Element Tb]",2,Tb1 Mg149,0.253099999999999,0.004489277722222,1.814239277564011
mp-1217324,Th2Ge3,"[Element Ge, Element Th]",2,Th2 Ge3,0.0,-0.6073607780000031,8.993575527998019
mp-1215900,YHo,"[Element Ho, Element Y]",2,Y1 Ho1,0.0,-0.003606287499998,6.436261279921932
mp-1217008,TiAl,"[Element Al, Element Ti]",2,Ti1 Al1,0.0,-0.29149810333333304,3.7316341862655653
mp-1206819,ZnIr,"[Element Ir, Element Zn]",2,Zn1 Ir1,0.0,-0.216662947499997,15.381680436674438
mp-1193580,C3N4,"[Element C, Element N]",2,C12 N16,1.134,0.09198766535714101,1.970362531274941
mp-1216102,Y2Ge3,"[Element Ge, Element Y]",2,Y2 Ge3,0.0,-0.556629406333334,5.533577545005109
mp-1206743,HfS,"[Element Hf, Element S]",2,Hf1 S1,0.0,-1.691345381406254,10.273513819839645
mp-1216325,VGa,"[Element Ga, Element V]",2,V1 Ga1,0.0,-0.16911629687499902,6.892405334732054
mp-1215893,YSc,"[Element Sc, Element Y]",2,Y1 Sc1,0.0,0.096499967499999,3.832870055946352
mp-1215904,YEr,"[Element Er, Element Y]",2,Y1 Er1,0.0,0.0022963833333300003,6.558193916909661
mp-1215518,ZnCu3,"[Element Cu, Element Zn]",2,Zn1 Cu3,0.0,-0.021427164999999002,8.910634444572121
mp-1217289,ThZr3,"[Element Th, Element Zr]",2,Th1 Zr3,0.0,0.067466557499997,8.194135971359845
mp-1215200,ZrTi,"[Element Ti, Element Zr]",2,Zr1 Ti1,0.0,0.079636073333333,5.607526945970661
mp-1216264,VRu3,"[Element Ru, Element V]",2,V1 Ru3,0.0,-0.07312900499999801,10.562972990053895
mp-1215497,Zn3Ag,"[Element Ag, Element Zn]",2,Zn3 Ag1,0.0,-0.019562567500001002,8.405375376276705
mp-1217417,Tc3Sn,"[Element Sn, Element Tc]",2,Tc3 Sn1,0.0,0.200611329999997,10.59261438186459
mp-1215923,YTh,"[Element Th, Element Y]",2,Y1 Th1,0.0,0.069214331666664,8.306232048805978
mp-1216312,VOs,"[Element Os, Element V]",2,V1 Os1,0.0,-0.099459401666663,14.221498890387645
mp-1217416,TbZr3,"[Element Tb, Element Zr]",2,Tb1 Zr3,0.0,0.062438533750000004,7.120081086442195
mp-1217014,TiAu,"[Element Au, Element Ti]",2,Ti1 Au1,0.0,-0.196494080833332,11.557839051434994
mp-1217116,Ti3Se,"[Element Se, Element Ti]",2,Ti3 Se1,0.0,-0.578375758085938,5.255215687608301
mp-1217363,TcRu,"[Element Ru, Element Tc]",2,Tc1 Ru1,0.0,-0.0712581075,11.919533457845379
mp-1217414,Tc3Pd,"[Element Pd, Element Tc]",2,Tc3 Pd1,0.0,0.0030618462500020005,11.308987960289985
mp-1215426,Zr3Se2,"[Element Se, Element Zr]",2,Zr3 Se2,0.0,-0.9892174801250001,6.5781107503591425
mp-1215541,Zr2U,"[Element U, Element Zr]",2,Zr2 U1,0.0,0.22128453,10.22825381950539
mp-1217419,Tc3Mo,"[Element Mo, Element Tc]",2,Tc3 Mo1,0.0,0.10354705374999801,10.826364113091092
mp-1215201,ZrSc,"[Element Sc, Element Zr]",2,Zr1 Sc1,0.0,0.025691794999996003,4.700044472058005
mp-1217072,Ti3Al,"[Element Al, Element Ti]",2,Ti3 Al1,0.0,-0.143674038749999,4.136340057386977
mp-1217408,TcNi,"[Element Ni, Element Tc]",2,Tc1 Ni1,0.0,0.06601491083333501,10.152407121223627
mp-1216823,U2Ge3,"[Element Ge, Element U]",2,U2 Ge3,0.0,-0.116629396650006,10.682640071234001
mp-1217274,ThHg3,"[Element Hg, Element Th]",2,Th1 Hg3,0.0,-0.106210606874995,12.837897362473857
mp-1217407,Tc3Os,"[Element Os, Element Tc]",2,Tc3 Os1,0.0,-0.052111272500006,14.151948409015946
mp-1217409,TcIr,"[Element Ir, Element Tc]",2,Tc1 Ir1,0.0,-0.236691475,17.01895242204191
mp-1216545,Tl3Bi,"[Element Bi, Element Tl]",2,Tl3 Bi1,0.0,0.036298703749999,11.007318418993325
mp-1216561,Tm2Ge3,"[Element Ge, Element Tm]",2,Tm2 Ge3,0.0,-0.44186889700000204,8.028363138107299
mp-1216624,UHg3,"[Element Hg, Element U]",2,U1 Hg3,0.0,0.159286731249999,14.700840434098506
mp-1217177,Ti3Fe,"[Element Fe, Element Ti]",2,Ti3 Fe1,0.0,0.041433117500000005,5.288070666843926
mp-1217468,TbHo,"[Element Ho, Element Tb]",2,Tb1 Ho1,0.0,-0.011893992499999001,8.290495000074976
mp-1217931,TaNi3,"[Element Ni, Element Ta]",2,Ta1 Ni3,0.0,0.160132560041667,11.478490785641336
mp-1219398,Sc2Si3,"[Element Sc, Element Si]",2,Sc2 Si3,0.0,-0.39578936599999903,3.134189159318243
mp-1217422,TcRh,"[Element Rh, Element Tc]",2,Tc1 Rh1,0.0,-0.128159449999998,12.003710736776279
mp-1219907,PrHo,"[Element Ho, Element Pr]",2,Pr1 Ho1,0.0,0.050974891666669006,7.4393707767077295
mp-1217685,Tb2Si3,"[Element Si, Element Tb]",2,Tb2 Si3,0.0,-0.496065090999999,6.097151465520512
mp-1219241,Si2Ir3,"[Element Ir, Element Si]",2,Si2 Ir3,0.0,-0.24508725124999803,13.6825370185995
mp-1219196,Sm2Ge3,"[Element Ge, Element Sm]",2,Sm2 Ge3,0.0,-0.5187430510000001,6.943793796363032
mp-1217912,TaRu3,"[Element Ru, Element Ta]",2,Ta1 Ru3,0.0,-0.023343597249997003,13.32325537285441
mp-1219135,Re3Mo,"[Element Mo, Element Re]",2,Re3 Mo1,0.0,0.10335570593750201,17.733846539347173
mp-1219889,Pr2Ho,"[Element Ho, Element Pr]",2,Pr8 Ho4,0.0,0.023249497222228,7.186690091734341
mp-1220272,Nd2Si3,"[Element Nd, Element Si]",2,Nd2 Si3,0.0,-0.49746180199999807,5.253926041559908
mp-1219503,RuRh,"[Element Rh, Element Ru]",2,Ru1 Rh1,0.0,0.032567702500003,12.394865502120334
mp-1219922,NiRu,"[Element Ni, Element Ru]",2,Ni1 Ru1,0.0,0.15575465500000202,10.513945421859965
mp-1217705,Tb2Ge3,"[Element Ge, Element Tb]",2,Tb2 Ge3,0.0,-0.5772932040000031,7.371841912259015
mp-1219506,Rh3W,"[Element Rh, Element W]",2,Rh3 W1,0.0,-0.078325656249994,13.83568242201397
mp-1217428,Tc3Pt,"[Element Pt, Element Tc]",2,Tc3 Pt1,0.0,-0.115081826249998,13.723238135219853
mp-1219539,Re3Rh,"[Element Re, Element Rh]",2,Re3 Rh1,0.0,-0.083121360625,18.526981397017543
mp-1219705,PrY,"[Element Pr, Element Y]",2,Pr1 Y1,0.0,0.053876099166668,5.385604801778506
mp-1218350,SrCa,"[Element Ca, Element Sr]",2,Sr1 Ca1,0.0,0.048704364999998,2.116228948159246
mp-1217906,TaOs3,"[Element Os, Element Ta]",2,Ta1 Os3,0.0,0.003693110666667,20.409483711045173
mp-1219533,ReIr,"[Element Ir, Element Re]",2,Re1 Ir1,0.0,-0.20246073124999903,21.764935057827124
mp-1219402,Sm3Pu,"[Element Pu, Element Sm]",2,Sm3 Pu1,0.0,0.091454558749994,8.845575273211885
mp-1219243,SiAg3,"[Element Ag, Element Si]",2,Si1 Ag3,0.0,0.184854339999997,8.45768311252099
mp-1217467,TbLu,"[Element Lu, Element Tb]",2,Tb1 Lu1,0.0,0.007760676666663,8.999005574584547
mp-1219498,SbPb3,"[Element Pb, Element Sb]",2,Sb1 Pb3,0.0,0.103795279999999,10.12350104736059
mp-1217621,Tb3Pr,"[Element Pr, Element Tb]",2,Tb3 Pr1,0.0,0.015326107083332001,7.569279534584512
mp-1217716,Tb3Ce,"[Element Ce, Element Tb]",2,Tb3 Ce1,0.0,0.039768947500000006,7.785726243020597
mp-1219540,Re3Pt,"[Element Pt, Element Re]",2,Re3 Pt1,0.0,-0.07330784687498901,20.64734008576563
mp-1220075,Np2Si3,"[Element Np, Element Si]",2,Np2 Si3,0.0,-0.291837180325001,9.367029790885601
mp-1219764,PuZr2,"[Element Pu, Element Zr]",2,Pu1 Zr2,0.0,0.53157895999999,11.008816315182468
mp-1219500,RePt,"[Element Pt, Element Re]",2,Re1 Pt1,0.0,-0.021544471249995003,20.801200773676452
mp-1219818,Ni7Ge4,"[Element Ge, Element Ni]",2,Ni7 Ge4,0.0,-0.22506931181818202,8.75060553249376
mp-1220208,Nd3Y,"[Element Nd, Element Y]",2,Nd3 Y1,0.0,0.011857426875003001,6.237961607374842
mp-1219476,RuW,"[Element Ru, Element W]",2,Ru1 W1,0.0,0.14253155249999502,15.99245154417478
mp-1219509,ReOs,"[Element Os, Element Re]",2,Re1 Os1,0.0,-0.089729866249996,21.662917182595454
mp-1220023,OsRu,"[Element Os, Element Ru]",2,Os1 Ru1,0.0,-0.014805672500003001,17.465527676371828
mp-1221413,MoPd,"[Element Mo, Element Pd]",2,Mo1 Pd1,0.0,0.059146242499995005,10.88557703326927
mp-1221419,MoRh,"[Element Mo, Element Rh]",2,Mo1 Rh1,0.0,-0.09350269000000101,10.995395673031366
mp-1221828,Mn3Ga,"[Element Ga, Element Mn]",2,Mn3 Ga1,0.0,-0.026114805086207,8.159589500061916
mp-1221418,MoOs,"[Element Mo, Element Os]",2,Mo1 Os1,0.0,0.07818549499999901,15.733006061668924
mp-1222385,Lu2Ge3,"[Element Ge, Element Lu]",2,Lu2 Ge3,0.0,-0.42044151166666605,8.437603839334313
mp-1220343,NbNi,"[Element Nb, Element Ni]",2,Nb1 Ni1,0.0,0.08406793000000101,8.623286148323425
mp-1220420,NbNi3,"[Element Nb, Element Ni]",2,Nb1 Ni3,0.0,0.13156824250000002,8.559896739233848
mp-1221414,MoIr,"[Element Ir, Element Mo]",2,Mo1 Ir1,0.0,-0.22755980000000803,15.856240048544882
mp-1221744,Mn7Sb4,"[Element Mn, Element Sb]",2,Mn7 Sb4,0.0,-0.056676401379307004,7.76466647889366
mp-1221363,Mn5Sb4,"[Element Mn, Element Sb]",2,Mn5 Sb4,0.0,-0.208769876704978,7.289240660617664
mp-1221532,MnZn3,"[Element Mn, Element Zn]",2,Mn1 Zn3,0.0,-0.030394292370688,7.401903735994305
mp-1221628,MnFe3,"[Element Fe, Element Mn]",2,Mn1 Fe3,0.0,0.065649073017242,8.931717852867463
mp-1222322,Lu3Th,"[Element Lu, Element Th]",2,Lu3 Th1,0.0,0.026174095000008002,10.366128196598064
mp-1220360,NbOs3,"[Element Nb, Element Os]",2,Nb1 Os3,0.0,0.02411627833333,18.034350722660598
mp-1222252,LuZr,"[Element Lu, Element Zr]",2,Lu1 Zr1,0.0,0.037238199166669005,8.532935986572907
mp-1221433,MoPt,"[Element Mo, Element Pt]",2,Mo1 Pt1,0.0,-0.19987173500000202,15.483747493744733
mp-1223757,In2Bi,"[Element Bi, Element In]",2,In2 Bi1,0.0,0.058085281666668,8.343440118947923
mp-1222883,LaDy,"[Element Dy, Element La]",2,La1 Dy1,0.0,0.054224560000001004,7.153619941198332
mp-1223778,IrW,"[Element Ir, Element W]",2,Ir1 W1,0.0,-0.16574648249999002,20.422634894880506
mp-1223787,InAg3,"[Element Ag, Element In]",2,In1 Ag3,0.0,0.027521498701926002,9.320869365652175
mp-1220602,Nb3Si,"[Element Nb, Element Si]",2,Nb3 Si1,0.0,0.018378243750003003,7.138409706008536
mp-1223816,InAu3,"[Element Au, Element In]",2,In1 Au3,0.0,-0.013750571136363,14.955510930311512
mp-1221543,MnZn,"[Element Mn, Element Zn]",2,Mn1 Zn1,0.0,0.11004014244252601,7.514654103506585
mp-1221551,MnRu,"[Element Mn, Element Ru]",2,Mn1 Ru1,0.0,0.23634688025862202,10.676317088056566
mp-1222288,LiZn3,"[Element Li, Element Zn]",2,Li1 Zn3,0.0,-0.085933486666663,5.6366309797181255
mp-1222812,LaHg3,"[Element Hg, Element La]",2,La1 Hg3,0.0,-0.246982991874993,10.176838330930927
mp-1223785,HoEr,"[Element Er, Element Ho]",2,Ho1 Er1,0.0,-0.011519139166672,8.769715658392336
mp-1223936,HgAu3,"[Element Au, Element Hg]",2,Hg1 Au3,0.0,0.076571181124997,16.890975181721718
mp-1224042,In3Pt5,"[Element In, Element Pt]",2,In3 Pt5,0.0,-0.388061528333338,13.461339711197114
mp-1223722,InSn3,"[Element In, Element Sn]",2,In1 Sn3,0.0,0.177804782499997,7.261332755578284
mp-1224077,Ho2Ge3,"[Element Ge, Element Ho]",2,Ho2 Ge3,0.0,-0.46768792499999706,7.78818079286086
mp-1220730,Nd3Pu,"[Element Nd, Element Pu]",2,Nd3 Pu1,0.0,0.138651051875001,9.263262627684162
mp-1220372,NbRu3,"[Element Nb, Element Ru]",2,Nb1 Ru3,0.0,0.013532608749997002,10.942440096121592
mp-1221397,MoRh3,"[Element Mo, Element Rh]",2,Mo1 Rh3,0.0,-0.10722056125000201,11.430488729323681
mp-1221639,MnGa,"[Element Ga, Element Mn]",2,Mn1 Ga1,0.0,-0.168264842241377,7.688283748721617
mp-1221705,Mn3Sb2,"[Element Mn, Element Sb]",2,Mn3 Sb2,0.0,-0.13119890227586,7.817111462227095
mp-1221386,MoRu,"[Element Mo, Element Ru]",2,Mo1 Ru1,0.0,0.06541675666666001,10.97058156361833
mp-1222405,LiCd3,"[Element Cd, Element Li]",2,Li1 Cd3,0.0,-0.10884519166666501,7.095069822985021
mp-1223655,IrOs,"[Element Ir, Element Os]",2,Ir1 Os1,0.0,0.038359514999996,22.339167792782597
mp-1225438,Dy2Ge3,"[Element Dy, Element Ge]",2,Dy2 Ge3,0.0,-0.565008207333335,7.607174848508471
mp-1224131,K7Hg31,"[Element Hg, Element K]",2,K7 Hg31,0.0,-0.194622106019736,9.699140954692588
mp-1225617,Er2Ge3,"[Element Er, Element Ge]",2,Er2 Ge3,0.0,-0.460083698999999,7.885236229971286
mp-1224335,GeAu3,"[Element Au, Element Ge]",2,Ge1 Au3,0.0,0.082164756249994,14.978254837830402
mp-1225197,Fe3Ge2,"[Element Fe, Element Ge]",2,Fe3 Ge2,0.0,-0.07312083799999901,7.6019292608645035
mp-1224258,HfTi,"[Element Hf, Element Ti]",2,Hf1 Ti1,0.0,0.06046461666666401,9.436223528532196
mp-1224803,FeRu,"[Element Fe, Element Ru]",2,Fe1 Ru1,0.0,0.128326495000001,10.583642690972527
mp-1224874,Gd2Si3,"[Element Gd, Element Si]",2,Gd2 Si3,0.0,-0.41465605799999905,6.030044217386869
mp-1224795,GaAg3,"[Element Ag, Element Ga]",2,Ga1 Ag3,0.0,-0.0015142762499990002,9.585132077095933
mp-1225745,Cu3Ge,"[Element Cu, Element Ge]",2,Cu3 Ge1,0.0,0.140930454999999,8.200622179383835
mp-1226422,Co3Rh,"[Element Co, Element Rh]",2,Co3 Rh1,0.0,0.051147844999999005,9.924417815525743
mp-1225997,CoRu,"[Element Co, Element Ru]",2,Co1 Ru1,0.0,0.15098905250000103,10.65892659837301
mp-1226002,CoMo,"[Element Co, Element Mo]",2,Co1 Mo1,0.0,0.239830620833334,9.773461076493708
mp-1226007,CoIr,"[Element Co, Element Ir]",2,Co1 Ir1,0.0,0.024336602500000002,16.408562548659948
mp-1226177,CrRu,"[Element Cr, Element Ru]",2,Cr1 Ru1,0.0,0.129685734999998,9.806257087092765
mp-1225736,Cu3Sb,"[Element Cu, Element Sb]",2,Cu3 Sb1,0.0,0.321819658749999,7.993358873832315
mp-1225995,CoRe,"[Element Co, Element Re]",2,Co1 Re1,0.0,0.11845653291666701,15.722575524471504
mp-1224300,HfSc,"[Element Hf, Element Sc]",2,Hf1 Sc1,0.0,0.042895252499999,7.995526542838251
mp-1224926,GaFe,"[Element Fe, Element Ga]",2,Ga1 Fe1,0.0,-0.058698403749999004,7.909216710551788
mp-1225502,DyHo,"[Element Dy, Element Ho]",2,Dy1 Ho1,0.0,-0.014702290000002002,8.472205271349072
mp-1224686,Fe2N,"[Element Fe, Element N]",2,Fe2 N1,0.0,0.065305054999999,7.477521212309678
mp-1224750,GdDy,"[Element Dy, Element Gd]",2,Gd1 Dy1,0.0,-0.011903512499991001,7.983954197771934
mp-1224777,GaRe,"[Element Ga, Element Re]",2,Ga1 Re1,0.0,0.078469112604167,14.21898854116881
mp-1225358,Fe7Ge4,"[Element Fe, Element Ge]",2,Fe7 Ge4,0.0,-0.062017642727273004,7.856925869229781
mp-1225523,Er3Th,"[Element Er, Element Th]",2,Er3 Th1,0.0,0.040600982500009,9.702295820188244
mp-1225139,Fe4Sb3,"[Element Fe, Element Sb]",2,Fe4 Sb3,0.0,0.353674547142857,7.015492787268979
mp-1225278,DyEr,"[Element Dy, Element Er]",2,Dy1 Er1,0.0,0.006563040833334001,8.736180012166457
mp-1226032,Co3Sn2,"[Element Co, Element Sn]",2,Co3 Sn2,0.0,0.058984154000000004,8.790320834885417
mp-1226229,CrIr,"[Element Cr, Element Ir]",2,Cr1 Ir1,0.0,0.007127100000005,15.669132850589383
mp-1225992,CoTc,"[Element Co, Element Tc]",2,Co1 Tc1,0.0,0.12881193166666402,10.3038319036049
mp-1226096,Co7Ge4,"[Element Co, Element Ge]",2,Co7 Ge4,0.0,0.021171623636364,8.684336402413928
mp-1226170,CrRh,"[Element Cr, Element Rh]",2,Cr1 Rh1,0.0,-0.021947511666667002,9.85237519211128
mp-1226209,CrCo3,"[Element Co, Element Cr]",2,Cr1 Co3,0.0,0.08414272125000001,8.74371863970201
mp-1225381,ErZr,"[Element Er, Element Zr]",2,Er1 Zr1,0.0,0.07523208499999601,8.036893820579508
mp-1226000,CoOs,"[Element Co, Element Os]",2,Co1 Os1,0.0,0.138392307499998,16.264150208390014
mp-1226447,Co3Ir,"[Element Co, Element Ir]",2,Co3 Ir1,0.0,0.059586497499999,12.792828020319291
mp-1226718,CdAu,"[Element Au, Element Cd]",2,Cd1 Au1,0.0,-0.12943553999999502,13.498666829964328
mp-1229107,Ag3Sn,"[Element Ag, Element Sn]",2,Ag3 Sn1,0.0,0.100666425,9.054311103109846
mp-1228441,Ba7Hg31,"[Element Ba, Element Hg]",2,Ba7 Hg31,0.016999999999999002,-0.319534342565788,10.953107924289428
mp-1226533,CeY,"[Element Ce, Element Y]",2,Ce1 Y1,0.0,0.10947308916666601,6.136832187949967
mp-1229105,Ag3Sb,"[Element Ag, Element Sb]",2,Ag3 Sb1,0.0,0.08736486500000101,8.989131441280312
mp-1226933,Cd3Ag,"[Element Ag, Element Cd]",2,Cd3 Ag1,0.0,-0.020846063749999002,9.176796494665641
mp-1228730,B24Mo7,"[Element B, Element Mo]",2,B24 Mo7,0.0,-0.151850970215055,5.313228326987755
mp-1226451,Co3Mo,"[Element Co, Element Mo]",2,Co3 Mo1,0.0,0.338272238750001,9.182845677359099
mp-1226445,Co3Ge2,"[Element Co, Element Ge]",2,Co3 Ge2,0.0,-5.5336000002625965e-05,8.378065815182266
mp-1459,TaN,"[Element N, Element Ta]",2,Ta1 N1,0.0,-1.33806432304167,14.964086826360337
mp-1226436,Co3Pt,"[Element Co, Element Pt]",2,Co3 Pt1,0.0,0.04474771,12.370123529986682
mp-1228287,Ba7Cd31,"[Element Ba, Element Cd]",2,Ba7 Cd31,0.0,-0.206004443684209,7.179208398530719
mp-1539,ZrTe,"[Element Te, Element Zr]",2,Zr1 Te1,0.0,-1.042866607500002,7.483785621518009
mp-1226617,CeEr,"[Element Ce, Element Er]",2,Ce1 Er1,0.0,0.09744149249999601,8.381935267048677
mp-1227326,BiPb,"[Element Bi, Element Pb]",2,Bi1 Pb1,0.0,0.084652902499996,11.084149996411403
mp-13036,MoN,"[Element Mo, Element N]",2,Mo1 N1,0.0,-0.45678565250000003,8.86307924579413
mp-1382591,PaV,"[Element Pa, Element V]",2,Pa1 V1,0.0,0.41240638500000404,12.218337219304471
mp-1228623,BC,"[Element B, Element C]",2,B1 C1,0.0,0.578474525520833,0.8817167968689341
mp-1229123,Ag3Pb,"[Element Ag, Element Pb]",2,Ag3 Pb1,0.0,0.142147600000001,10.17271022464034
mp-1227382,Be8Ru,"[Element Be, Element Ru]",2,Be16 Ru2,0.0,-0.112924064999999,3.491080976226289
mp-1226802,Ce3Y,"[Element Ce, Element Y]",2,Ce3 Y1,0.0,0.07353443958333701,7.326271106559092
mp-1227388,Bi3Pd5,"[Element Bi, Element Pd]",2,Bi3 Pd5,0.0,-0.170394602916665,10.946338517504262
mp-1238773,MnO,"[Element Mn, Element O]",2,Mn1 O1,0.0,-1.616890446465516,2.349830771018693
mp-1226878,Cd3Hg,"[Element Cd, Element Hg]",2,Cd3 Hg1,0.0,0.039806100625,9.956592004316198
mp-1226559,Co3Ni,"[Element Co, Element Ni]",2,Co3 Ni1,0.0,0.0007653474999990001,9.200893642176961
mp-1228901,AlAg,"[Element Ag, Element Al]",2,Al1 Ag1,0.0,-0.029985952500000003,6.819245943325724
mp-1874,NbS2,"[Element Nb, Element S]",2,Nb1 S2,0.0,-1.329801329999998,1.787735886198265
mp-1250261,SiO2,"[Element O, Element Si]",2,Si18 O36,5.7371,-3.251426622222222,1.606729680990202
mp-1572,GaSe,"[Element Ga, Element Se]",2,Ga4 Se4,1.240599999999999,-0.68973748953125,4.847688388208136
mp-1229108,Ag3Ge,"[Element Ag, Element Ge]",2,Ag3 Ge1,0.0,0.08377575375,8.963697780882413
mp-1229111,Ag3Bi,"[Element Ag, Element Bi]",2,Ag3 Bi1,0.0,0.14664321500000102,9.99742337012961
mp-1894,WC,"[Element C, Element W]",2,W1 C1,0.0,-0.153540745,15.547461086412072
mp-561735,Cs7O,"[Element Cs, Element O]",2,Cs21 O3,0.0,-0.448905838239943,2.097981564019763
mp-2305,MoC,"[Element C, Element Mo]",2,Mo1 C1,0.0,-0.160418414999998,8.654787043321647
mp-600561,LiRh,"[Element Li, Element Rh]",2,Li1 Rh1,0.0,-0.18600633833333302,6.920097842919409
mp-22210,Co2As,"[Element As, Element Co]",2,Co2 As1,0.0,0.10824907208333401,8.734027607821071
mp-2352722,Al2O3,"[Element Al, Element O]",2,Al6 O9,4.7728,-3.229303001666667,2.516919986234914
mp-2243,NbS,"[Element Nb, Element S]",2,Nb1 S1,0.0,-1.13542374875,6.545345160925282
mp-571133,NbSe2,"[Element Nb, Element Se]",2,Nb4 Se8,0.0,-0.982392651875,5.854300600809528
mp-604884,BN,"[Element B, Element N]",2,B2 N2,4.3683,-1.412978993125001,2.246711413298581
mp-2744,LiPd,"[Element Li, Element Pd]",2,Li1 Pd1,0.0,-0.416655163333333,6.86800390931238
mp-571589,Mo2C,"[Element C, Element Mo]",2,Mo2 C1,0.0,0.518952600000001,8.563766451005703