material_id,formula_pretty,elements,nelements,composition,band_gap,formation_energy_per_atom,density
mp-978293,Mg3Pb,"[Element Mg, Element Pb]",2,Mg3 Pb1,0.0,-0.013432566249999,4.957584261114754
mp-977264,Pm2Mg,"[Element Mg, Element Pm]",2,Pm2 Mg1,0.0,-0.042058686666668,5.597520079725037
mp-978552,SiRh3,"[Element Rh, Element Si]",2,Si1 Rh3,0.0,-0.360563960625,10.191930165247385
mp-978533,SiHg3,"[Element Hg, Element Si]",2,Si1 Hg3,0.0,0.42990896124999906,11.28276841356198
mp-977057,NpAs3,"[Element As, Element Np]",2,Np1 As3,0.0,-0.6121987159375021,9.664241809153348
mp-977155,NpFe3,"[Element Fe, Element Np]",2,Np1 Fe3,0.0,0.200273557812499,13.138566485912126
mp-978508,Si3Os,"[Element Os, Element Si]",2,Si3 Os1,0.0,0.28823431374999503,8.370429042201689
mp-976824,MgPb3,"[Element Mg, Element Pb]",2,Mg1 Pb3,0.0,0.02079868625,9.308912942159024
mp-977314,NaLu3,"[Element Lu, Element Na]",2,Na1 Lu3,0.0,0.34044307836206705,7.51751357629779
mp-976818,Ni3Au,"[Element Au, Element Ni]",2,Ni3 Au1,0.0,0.09746691250000301,12.269484435591234
mp-978524,Si3Ag,"[Element Ag, Element Si]",2,Si3 Ag1,0.0,0.545992760833332,4.987309022671237
mp-978277,Mg3Cr,"[Element Cr, Element Mg]",2,Mg3 Cr1,0.0,0.28454970125,2.511305811620998
mp-978531,Sc3Pb,"[Element Pb, Element Sc]",2,Sc3 Pb1,0.0,-0.339607571249999,5.991082286467773
mp-978790,Sm3Ag,"[Element Ag, Element Sm]",2,Sm3 Ag1,0.0,0.005057206250000001,8.069943261145738
mp-976971,NaPd3,"[Element Na, Element Pd]",2,Na1 Pd3,0.0,0.00025291500000400004,9.03658126774107
mp-978290,Mg3Os,"[Element Mg, Element Os]",2,Mg3 Os1,0.0,0.084235210312495,6.318773477577429
mp-978499,SiAs3,"[Element As, Element Si]",2,Si1 As3,0.0,0.6606230593749981,5.4767845796077435
mp-978283,Mg3In,"[Element In, Element Mg]",2,Mg3 In1,0.0,-0.057256857916664,3.49265121323391
mp-977385,NpH3,"[Element H, Element Np]",2,Np1 H3,0.0,-0.573973663749999,10.85862662075242
mp-978280,Mg3Ga,"[Element Ga, Element Mg]",2,Mg3 Ga1,0.0,-0.045771108124999,2.942627910611009
mp-978825,Sm3Cr,"[Element Cr, Element Sm]",2,Sm3 Cr1,0.0,0.358803561249999,7.238140362145246
mp-978906,Sm3Dy,"[Element Dy, Element Sm]",2,Sm3 Dy1,0.0,0.026838033750003,7.662529218698798
mp-978967,SrDy3,"[Element Dy, Element Sr]",2,Sr1 Dy3,0.0,0.21214723583333403,6.803947238318003
mp-979274,UAg3,"[Element Ag, Element U]",2,U1 Ag3,0.0,0.36722466999999803,10.772332087805884
mp-978849,Sm3Mg,"[Element Mg, Element Sm]",2,Sm3 Mg1,0.0,0.017494587499998,6.420605411532963
mp-978993,Th3S,"[Element S, Element Th]",2,Th3 S1,0.0,-0.198747253203116,11.0875792172624
mp-978828,Sm3Zn,"[Element Sm, Element Zn]",2,Sm3 Zn1,0.0,-0.028808963750000003,7.637141379825417
mp-978939,Sm3Th,"[Element Sm, Element Th]",2,Sm3 Th1,0.0,0.06993730125,8.497539959666513
mp-979254,SnGe3,"[Element Ge, Element Sn]",2,Sn1 Ge3,0.0,0.292262777499999,6.596363982973559
mp-979282,TbU3,"[Element Tb, Element U]",2,Tb1 U3,0.0,0.5483069674999961,15.700046690355109
mp-979038,Th3O,"[Element O, Element Th]",2,Th3 O1,0.0,-0.051427253749997,11.479091124437774
mp-979262,Tl3F,"[Element F, Element Tl]",2,Tl3 F1,0.0,-0.659373125416664,9.673197720469002
mp-979924,Dy3Y,"[Element Dy, Element Y]",2,Dy3 Y1,0.0,0.054887533750001,7.495460734540281
mp-978974,SnRh3,"[Element Rh, Element Sn]",2,Sn1 Rh3,0.0,-0.25236256375000105,11.683942185368164
mp-979413,W3C,"[Element C, Element W]",2,W3 C1,0.0,1.253896365000002,16.577625702894597
mp-978832,Sm3Pd,"[Element Pd, Element Sm]",2,Sm3 Pd1,0.0,-0.16764323249999702,8.441736695960333
mp-978965,Th3Ni,"[Element Ni, Element Th]",2,Th3 Ni1,0.0,0.18052051000000302,11.762936050655538
mp-979115,Ti2Ag,"[Element Ag, Element Ti]",2,Ti2 Ag1,0.0,-0.04510925277777501,6.592237273060735
mp-978829,Sm3Hf,"[Element Hf, Element Sm]",2,Sm3 Hf1,0.0,0.180307236250001,8.734873181935066
mp-979014,SrAc3,"[Element Ac, Element Sr]",2,Sr1 Ac3,0.0,0.073535063958338,6.823685467228829
mp-979116,Th3Br,"[Element Br, Element Th]",2,Th3 Br1,0.0,-0.061968781249996004,10.676838574502357
mp-978969,TlAu3,"[Element Au, Element Tl]",2,Tl1 Au3,0.0,0.077672596249996,16.30200918883656
mp-979028,Sm2Mg,"[Element Mg, Element Sm]",2,Sm2 Mg1,0.0,-0.039301411666668,5.883451824789558
mp-978795,Sm3Hg,"[Element Hg, Element Sm]",2,Sm3 Hg1,0.0,-0.19657326187500201,9.483416885589707
mp-978960,Sm3Tm,"[Element Sm, Element Tm]",2,Sm3 Tm1,0.0,0.031519092499998,7.840801148633795
mp-979010,TmPu3,"[Element Pu, Element Tm]",2,Tm1 Pu3,0.0,0.175293015833332,13.522915858475711
mp-978798,Sm3I,"[Element I, Element Sm]",2,Sm3 I1,0.0,-0.193460655,7.478228721486027
mp-979273,TePd3,"[Element Pd, Element Te]",2,Te1 Pd3,0.0,-0.212381265000001,11.001923680275768
mp-979268,Tl3Br,"[Element Br, Element Tl]",2,Tl3 Br1,0.0,-0.42463394125000603,8.678003560611769
mp-979951,Yb3U,"[Element U, Element Yb]",2,Yb3 U1,0.0,0.225531804999995,10.925347875329054
mp-979953,Yb3Ta,"[Element Ta, Element Yb]",2,Yb3 Ta1,0.0,0.27376879941666404,11.473927345238948
mp-981336,Zn3C,"[Element C, Element Zn]",2,Zn3 C1,0.0,1.045974108124999,6.755078128777609
mp-980060,TbAg3,"[Element Ag, Element Tb]",2,Tb1 Ag3,0.0,-0.218349787916666,9.922233299721594
mp-980204,TiP3,"[Element P, Element Ti]",2,Ti1 P3,0.0,-0.08851852449404801,4.013226051275454
mp-982008,Hg3F,"[Element F, Element Hg]",2,Hg3 F1,0.0,-0.49656532062499503,12.164443296127905
mp-981210,Tl3V,"[Element Tl, Element V]",2,Tl3 V1,0.0,0.508951774999999,10.817824732727782
mp-980192,YbOs3,"[Element Os, Element Yb]",2,Yb1 Os3,0.0,0.26944276374999904,19.182279244822173
mp-980188,RbYb3,"[Element Rb, Element Yb]",2,Rb1 Yb3,0.0,0.6892160484374971,7.031787042483343
mp-979988,YbSm3,"[Element Sm, Element Yb]",2,Yb1 Sm3,0.0,0.027598341249998003,7.919606583516723
mp-980385,Tb3Er,"[Element Er, Element Tb]",2,Tb3 Er1,0.0,0.039592026666664004,8.447924222131148
mp-981366,Zn3N,"[Element N, Element Zn]",2,Zn3 N1,0.0,0.742932351562499,7.169803780897059
mp-979952,Yb3Ti,"[Element Ti, Element Yb]",2,Yb3 Ti1,0.0,0.15004532208333202,8.80773718326631
mp-981232,Ti3Nb,"[Element Nb, Element Ti]",2,Ti3 Nb1,0.0,0.081936197499999,5.589552882361941
mp-981383,ScSn3,"[Element Sc, Element Sn]",2,Sc1 Sn3,0.0,-0.261707730624998,6.686733755660681
mp-981200,Zn3Cd,"[Element Cd, Element Zn]",2,Zn3 Cd1,0.0,0.11120783874999901,7.862767978949442
mp-982018,Ho3Sb,"[Element Ho, Element Sb]",2,Ho3 Sb1,0.0,-0.5500025308333281,9.229658441952205
mp-979982,YbPu3,"[Element Pu, Element Yb]",2,Yb1 Pu3,0.0,-0.038976202812506,14.611557878688842
mp-980940,Ti3N,"[Element N, Element Ti]",2,Ti3 N1,0.0,0.24481105989583402,4.964112153023645
mp-981385,Sc3P,"[Element P, Element Sc]",2,Sc3 P1,0.0,-0.5315007044940481,3.5143143671321573
mp-981547,PrH3,"[Element H, Element Pr]",2,Pr1 H3,0.1572,-0.6036326819791651,5.79171839232945
mp-980070,YbEr3,"[Element Er, Element Yb]",2,Yb1 Er3,0.0,0.05996395374999901,9.251197417165262
mp-980811,TmMn12,"[Element Mn, Element Tm]",2,Tm1 Mn12,0.0,-0.014119485782494001,8.64130803284873
mp-981749,TcAg3,"[Element Ag, Element Tc]",2,Tc1 Ag3,0.0,0.594415053750001,9.954897122786814
mp-980196,YbTm3,"[Element Tm, Element Yb]",2,Yb1 Tm3,0.0,0.053119578749999,9.418946561954131
mp-981391,Hg3Ir,"[Element Hg, Element Ir]",2,Hg3 Ir1,0.0,0.45966858124999904,16.625068879320143
mp-982597,Pa3W,"[Element Pa, Element W]",2,Pa3 W1,0.0,0.30163773249999704,16.00804417160732
mp-982195,KNd3,"[Element K, Element Nd]",2,K1 Nd3,0.0,0.44739951112499904,5.001341531681658
mp-982205,Rb3Cd,"[Element Cd, Element Rb]",2,Rb3 Cd1,0.0,0.07818871687500001,2.415126854869631
mp-982510,P3Au,"[Element Au, Element P]",2,P3 Au1,0.0,0.619503958258931,5.6119825704934065
mp-984614,Au3Br,"[Element Au, Element Br]",2,Au3 Br1,0.0,0.22176595375000002,14.059645013161123
mp-984772,Ce3Zn,"[Element Ce, Element Zn]",2,Ce3 Zn1,0.0,-0.050291622499996004,8.026615183311195
mp-982381,NaCu3,"[Element Cu, Element Na]",2,Na1 Cu3,0.0,0.31586984836206905,6.289396507488123
mp-984523,CsCa3,"[Element Ca, Element Cs]",2,Cs1 Ca3,0.0,0.249876398017242,2.048476999621162
mp-985059,AcLa3,"[Element Ac, Element La]",2,Ac1 La3,0.0,0.025576441875003002,6.793603205833718
mp-985278,AcF3,"[Element Ac, Element F]",2,Ac1 F3,6.0693,-4.467987469375,8.793764902943147
mp-982637,Na3Mg,"[Element Mg, Element Na]",2,Na3 Mg1,0.0,0.09973374989585701,1.212209395497446
mp-982378,Na3Cr,"[Element Cr, Element Na]",2,Na3 Cr1,0.0,0.557597970086207,1.6925540214332
mp-982448,Pm3Y,"[Element Pm, Element Y]",2,Pm3 Y1,0.0,0.038133759375,6.368970856959177
mp-982367,Pm3Zr,"[Element Pm, Element Zr]",2,Pm3 Zr1,0.0,0.137911926874998,7.065232155567847
mp-984712,Cr3Se,"[Element Cr, Element Se]",2,Cr3 Se1,0.0,0.242078741914061,7.849020040908926
mp-984715,Ba3Er,"[Element Ba, Element Er]",2,Ba3 Er1,0.0,0.250791205,4.720330940128624
mp-984796,BaTh3,"[Element Ba, Element Th]",2,Ba1 Th3,0.0,0.373670802500003,9.812005581297234
mp-982664,K3In,"[Element In, Element K]",2,K3 In1,0.0,0.07747815789583401,1.955479037293855
mp-984776,BeIn3,"[Element Be, Element In]",2,Be1 In3,0.0,0.46112650125000104,6.382623442147085
mp-982373,Pm3Zn,"[Element Pm, Element Zn]",2,Pm3 Zn1,0.0,-0.039081147708341,7.273292215644342
mp-982881,PmTm3,"[Element Pm, Element Tm]",2,Pm1 Tm3,0.0,0.051325203124996006,8.683959084814449
mp-983365,K3Hg,"[Element Hg, Element K]",2,K3 Hg1,0.0,-0.021142629687499002,2.734149255617369
mp-984050,BiH3,"[Element Bi, Element H]",2,Bi1 H3,0.0,0.636004401250001,8.808682740012483
mp-984779,CeDy3,"[Element Ce, Element Dy]",2,Ce1 Dy3,0.0,0.08277064125000001,8.36768947126081
mp-982871,Na3Pt,"[Element Na, Element Pt]",2,Na3 Pt1,0.0,-0.08467967534482801,4.972342236120159
mp-984705,ErRu3,"[Element Er, Element Ru]",2,Er1 Ru3,0.0,0.12980286000000102,11.916121497908476
mp-982065,PrHo3,"[Element Ho, Element Pr]",2,Pr1 Ho3,0.0,0.052447495833334,8.151792855469747
mp-982930,HfTl3,"[Element Hf, Element Tl]",2,Hf1 Tl3,0.0,0.243416327499986,13.160169952865427
mp-982982,HfH3,"[Element H, Element Hf]",2,Hf1 H3,0.0,-0.302840800624998,10.65806097526149
mp-9908,Ba2Sb,"[Element Ba, Element Sb]",2,Ba4 Sb2,0.0,-0.924349306666666,4.970383492699993
mp-985581,SmFe12,"[Element Fe, Element Sm]",2,Sm1 Fe12,0.0,0.25883514576923,7.735629958226609
mp-999441,Nb3Cr,"[Element Cr, Element Nb]",2,Nb3 Cr1,0.0,0.28674247749999804,8.000342246452101
mp-999204,ScAl3,"[Element Al, Element Sc]",2,Sc1 Al3,0.0,-0.38594177624999904,2.916630297364668
mp-985299,Ag3N,"[Element Ag, Element N]",2,Ag3 N1,0.0,0.9805402187500001,8.957016366320707
mp-990,HoAu2,"[Element Au, Element Ho]",2,Ho1 Au2,0.0,-0.9597976883333291,15.085353740496673
mp-985551,CeY3,"[Element Ce, Element Y]",2,Ce1 Y3,0.0,0.092071666249999,5.374124291901422
mp-985280,Co3Bi,"[Element Bi, Element Co]",2,Co3 Bi1,0.0,0.426736236249999,11.411411818916328
mp-985296,Ag3Pd,"[Element Ag, Element Pd]",2,Ag3 Pd1,0.0,-0.06677629124999701,10.728137772596519
mp-999544,YAg2,"[Element Ag, Element Y]",2,Y1 Ag2,0.0,-0.32084362999999805,7.932803950766604
mp-999392,NbCr3,"[Element Cr, Element Nb]",2,Nb1 Cr3,0.0,0.3813421075,7.542845656730328
mp-985295,Ag3P,"[Element Ag, Element P]",2,Ag3 P1,0.0,0.20542232584686101,8.421605195423677
mp-9925,Ca2Sb,"[Element Ca, Element Sb]",2,Ca4 Sb2,0.0,-0.9454077566666661,3.531185184683812
mp-985564,InTc3,"[Element In, Element Tc]",2,In1 Tc3,0.0,0.32746596375000003,10.68182552973597
mp-985286,Ac2Mg,"[Element Ac, Element Mg]",2,Ac2 Mg1,0.0,-0.006998733333333,6.791641239563196
mp-999391,NbFe3,"[Element Fe, Element Nb]",2,Nb1 Fe3,0.0,0.029579722500001,8.17946026386024
mp-9994,Ho11Ge10,"[Element Ge, Element Ho]",2,Ho22 Ge20,0.0,-0.8366941292857131,8.831829070830157
mp-985301,AcDy3,"[Element Ac, Element Dy]",2,Ac1 Dy3,0.0,0.071243759375001,8.541776627818674
mp-985557,Ce3Dy,"[Element Ce, Element Dy]",2,Ce3 Dy1,0.0,0.09504041625000001,8.369790901670346
mp-985605,Cs3Ni,"[Element Cs, Element Ni]",2,Cs3 Ni1,0.0,0.7009771015517251,3.027508073756545
mp-999394,Nb3Ni,"[Element Nb, Element Ni]",2,Nb3 Ni1,0.0,0.101471164999999,8.430940710273028
mp-999438,Nb3Fe,"[Element Fe, Element Nb]",2,Nb3 Fe1,0.0,0.209476759999999,8.361437886834608
mp-1079720,AgO,"[Element Ag, Element O]",2,Ag4 O4,0.115999999999999,-0.400223648333332,7.621574678691285
mp-1080303,CeSe2,"[Element Ce, Element Se]",2,Ce4 Se8,0.5051999999999991,-1.892473037395832,5.8524572640419255
mp-1078607,BiSe,"[Element Bi, Element Se]",2,Bi4 Se4,0.0,-0.19344766661458102,7.310274084795859
mp-1018891,PdCl2,"[Element Cl, Element Pd]",2,Pd2 Cl4,0.8803000000000001,-0.5841705916666671,4.271577480556063
mp-1021522,VO2,"[Element O, Element V]",2,V8 O16,0.9877,-2.447055623750001,4.231962906701165
mp-1043783,Bi2O5,"[Element Bi, Element O]",2,Bi8 O20,0.0,-1.046575201428573,7.160878803740625
mp-10155,P2Ir,"[Element Ir, Element P]",2,P8 Ir4,0.6331,-0.8183616969841261,9.202463695856821
mp-1074730,Mg2Si,"[Element Mg, Element Si]",2,Mg8 Si4,0.0,0.035132388333333,2.086070843816335
mp-1079710,UMo,"[Element Mo, Element U]",2,U4 Mo4,0.0,0.25037521499999804,14.989780491484684
mp-1011709,Cs2Se,"[Element Cs, Element Se]",2,Cs8 Se4,2.1827,-1.260837061354166,4.228462863128902
mp-1079139,K3Co,"[Element Co, Element K]",2,K6 Co2,0.0,0.868490212749999,1.091257241688299
mp-1073642,MgSi2,"[Element Mg, Element Si]",2,Mg4 Si8,0.0,0.11340198249999901,2.318379326521978
mp-1078816,SN,"[Element N, Element S]",2,S4 N4,0.0,0.8090262296875,2.146427087903867
mp-1079828,IrC4,"[Element C, Element Ir]",2,Ir2 C8,0.0,0.9714518620000001,9.164079304988917
mp-1080439,P4Ru,"[Element P, Element Ru]",2,P8 Ru2,0.733699999999999,-0.498539590380951,4.836651900698551
mp-1075786,Mg3Si2,"[Element Mg, Element Si]",2,Mg12 Si8,0.0,0.024711491499999003,2.257352113263311
mp-1080633,CeSe2,"[Element Ce, Element Se]",2,Ce16 Se32,0.9791000000000001,-1.401256812604164,2.772985975081432
mp-10487,RbSb,"[Element Rb, Element Sb]",2,Rb8 Sb8,0.7347,-0.5151359468749981,4.008540721674215
mp-1079128,CrBi,"[Element Bi, Element Cr]",2,Cr4 Bi4,0.0,0.609436451249997,8.553683581878337
mp-1080632,CeSe2,"[Element Ce, Element Se]",2,Ce24 Se48,0.9486000000000001,-1.394536292256943,2.116621168816427
mp-1095294,SiS2,"[Element S, Element Si]",2,Si4 S8,3.3924,-0.746786713541666,2.103801876956756
mp-1080262,CeSe2,"[Element Ce, Element Se]",2,Ce8 Se16,0.9448000000000001,-1.406606603229165,2.752128623523432
mp-1087509,P4Os,"[Element Os, Element P]",2,P8 Os2,0.672099999999999,-0.44436784438095106,6.74461232293492
mp-1100466,MgSi2,"[Element Mg, Element Si]",2,Mg4 Si8,0.0,0.110376764166666,2.305159276957593
mp-1101189,VF5,"[Element F, Element V]",2,V4 F20,2.7828,-2.783632503333333,2.660499963496651
mp-1095479,GdS2,"[Element Gd, Element S]",2,Gd4 S8,0.1922,-1.9619954877083332,5.910561193046943
mp-1097707,Cu2Se,"[Element Cu, Element Se]",2,Cu96 Se48,0.07629999999999901,-0.07560757614583201,6.684578452144643
mp-1100468,Mg2Si,"[Element Mg, Element Si]",2,Mg8 Si4,0.0,0.045426485,2.252917135709562
mp-1102408,PrAs2,"[Element As, Element Pr]",2,Pr4 As8,0.04820000000000001,-1.16075454972222,6.5304356834406505
mp-1101873,ErS2,"[Element Er, Element S]",2,Er4 S8,0.3512,-1.945356014652778,6.549085388488505
mp-1095335,MnS2,"[Element Mn, Element S]",2,Mn4 S8,0.0,-0.497801395035918,3.43845986224438
mp-1096918,CrN2,"[Element Cr, Element N]",2,Cr8 N16,0.0,-0.12577997833333102,2.368441190678568
mp-1103100,Bi2S,"[Element Bi, Element S]",2,Bi8 S4,0.0,-0.062403191493056,8.29156998824427
mp-1095546,ReO2,"[Element O, Element Re]",2,Re4 O8,0.0,-1.8208429283333332,10.80304401729104
mp-1101193,VF4,"[Element F, Element V]",2,V4 F16,1.8941999999999992,-2.9788090384999992,2.8568411513978713
mp-1102883,YO2,"[Element O, Element Y]",2,Y4 O8,0.0,-2.977535210833333,3.643737666402723
mp-1102055,LaAs2,"[Element As, Element La]",2,La4 As8,0.18400000000000002,-1.243243909166667,6.273847546429921
mp-1102900,Ag2S,"[Element Ag, Element S]",2,Ag8 S4,1.183999999999999,-0.072879224270832,6.204328485489086
mp-1102082,Bi2Se,"[Element Bi, Element Se]",2,Bi8 Se4,0.0,-0.091139951909724,9.02354096824111
mp-1095637,PrP2,"[Element P, Element Pr]",2,Pr4 P8,0.0,-1.175496640873014,5.068464199954455
mp-1101783,Bi2Ir,"[Element Bi, Element Ir]",2,Bi8 Ir4,0.0,-0.077140283333335,13.481051630842188
mp-1101190,VF4,"[Element F, Element V]",2,V4 F16,2.7491,-2.9922808770000002,2.916915393132672
mp-1102963,VO2,"[Element O, Element V]",2,V4 O8,0.0,-2.479511370000001,4.465187981414028
mp-1101458,NdO2,"[Element Nd, Element O]",2,Nd4 O8,0.0,-2.852619535833332,5.3578728895479735
mp-1103226,TbS2,"[Element S, Element Tb]",2,Tb4 S8,0.314799999999999,-1.996898287708333,6.076724302365289
mp-1103431,Ga2Au,"[Element Au, Element Ga]",2,Ga8 Au4,0.0,-0.097132713333337,10.077689747314418
mp-1120759,PdSe2,"[Element Pd, Element Se]",2,Pd2 Se4,1.3767,-0.270646422708331,1.309313276281645
mp-1105223,ZrF4,"[Element F, Element Zr]",2,Zr4 F16,5.3453,-4.027976308499999,4.6338271160383755
mp-1160849,VF5,"[Element F, Element V]",2,V4 F20,3.425899999999999,-2.834940268333333,3.094098667682488
mp-1105095,BaP2,"[Element Ba, Element P]",2,Ba6 P12,0.5585999999999991,-0.8030356214285691,4.019030353699522
mp-1103658,LaS2,"[Element La, Element S]",2,La4 S8,0.6101999999999991,-2.139869563541666,4.822858129864816
mp-1176433,MnF3,"[Element F, Element Mn]",2,Mn4 F12,0.0,-2.714031989482759,3.489158125658025
mp-1105302,SrP2,"[Element P, Element Sr]",2,Sr6 P12,0.796899999999999,-0.9206095508730161,3.378070328284513
mp-1154,Ho4C7,"[Element C, Element Ho]",2,Ho16 C28,0.7510000000000001,-0.286120912954541,7.957745471521479
mp-1178386,CsTe4,"[Element Cs, Element Te]",2,Cs4 Te16,0.514899999999999,-0.47848127700000004,5.034450214681592
mp-1106381,NaAs,"[Element As, Element Na]",2,Na8 As8,0.5734,-0.519339895624998,3.495268713941957
mp-1105631,As2O3,"[Element As, Element O]",2,As8 O12,1.4491,-0.47588589550000004,2.4117790071435943
mp-1106184,MnB4,"[Element B, Element Mn]",2,Mn4 B16,0.0053,-0.248795484896552,4.560769604055294
mp-1179123,U3O10,"[Element O, Element U]",2,U12 O40,0.0,-3.005512145384614,6.796311192643711
mp-1105545,SbO3,"[Element O, Element Sb]",2,Sb4 O12,0.0,-1.30695411625,4.843921686216801
mp-1147714,P2S3,"[Element P, Element S]",2,P8 S12,2.4551,-0.17396605537797402,2.147833835008109
mp-1179626,SO5,"[Element O, Element S]",2,S4 O20,1.8876,-0.808553435416667,1.516206337370709
mp-1178951,TeO4,"[Element O, Element Te]",2,Te2 O8,0.0,-0.636291818333333,4.6524169722518405
mp-1178856,UMo,"[Element Mo, Element U]",2,U4 Mo4,0.0,0.16938372375000202,15.064662368859933
mp-1106279,BiI3,"[Element Bi, Element I]",2,Bi4 I12,2.297,-0.746196726874999,4.413745831021496
mp-1105406,BaP3,"[Element Ba, Element P]",2,Ba4 P12,1.3658000000000001,-0.6531066703571391,3.731718454549799
mp-1179841,PPb,"[Element P, Element Pb]",2,P8 Pb8,0.0,0.12604816833333302,7.671900277173361
mp-1180046,NiS2,"[Element Ni, Element S]",2,Ni2 S4,0.24040000000000003,-0.591526538333332,3.940790604191446
mp-1181130,IO6,"[Element I, Element O]",2,I4 O24,0.17619999999999902,0.284263650714285,2.97224506801137
mp-1190647,Ge3F8,"[Element F, Element Ge]",2,Ge6 F16,4.2902000000000005,-2.356915264090908,4.176863364621199
mp-1190908,Ga9Rh2,"[Element Ga, Element Rh]",2,Ga18 Rh4,0.0,-0.34200549977272704,7.703633476671263
mp-1180500,NO2,"[Element N, Element O]",2,N4 O8,1.5102,0.016958182500000002,1.662079309429133
mp-1180742,KO2,"[Element K, Element O]",2,K4 O8,0.0,-0.953316015749999,2.2920208449421082
mp-1182433,BaO4,"[Element Ba, Element O]",2,Ba4 O16,0.0,-1.187949647,3.713863920625183
mp-1183667,B4H5,"[Element B, Element H]",2,B64 H80,2.8507,-0.081291103298611,0.98126689237535
mp-1180536,NaO8,"[Element Na, Element O]",2,Na4 O32,0.0,-0.064422198764368,1.6799274038642462
mp-1182474,BrO2,"[Element Br, Element O]",2,Br4 O8,0.0,0.20555442166666602,2.9730972069219233
mp-1182936,Al2Mo3,"[Element Al, Element Mo]",2,Al16 Mo24,0.0,0.12278371749999901,7.053400707038112
mp-1182720,BaO10,"[Element Ba, Element O]",2,Ba4 O40,0.0,-0.38305388681818103,2.738512561487934
mp-1180711,KO2,"[Element K, Element O]",2,K4 O8,0.0,-0.959411133249999,2.265400559582304
mp-1182141,BaO2,"[Element Ba, Element O]",2,Ba8 O16,0.0,-1.751452131249999,5.3379277452172005
mp-1182259,BaO2,"[Element Ba, Element O]",2,Ba8 O16,0.0,-1.736793177916666,4.853481284200349