material_id,formula_pretty,elements,nelements,composition,band_gap,formation_energy_per_atom,density
mp-1179144,SeO4,"[Element O, Element Se]",2,Se4 O16,0.0,-0.37729834646875005,2.701291288260742
mp-1180334,NO,"[Element N, Element O]",2,N4 O4,0.0,0.10740907874999901,2.657650577881332
mp-1096957,CrN2,"[Element Cr, Element N]",2,Cr24 N48,0.061900000000000004,-0.14675874055555402,2.1847103107874712
mp-1102744,ZnO2,"[Element O, Element Zn]",2,Zn4 O8,1.2744,-1.0260979225,5.155162725014884
mp-1396391,WO3,"[Element O, Element W]",2,W4 O12,1.4637,-2.181651673125,7.24237404721964
mp-21858,UO3,"[Element O, Element U]",2,U4 O12,1.9038,-3.529201394374998,8.629546292556658
mp-2047939,Ag2Se,"[Element Ag, Element Se]",2,Ag8 Se4,0.0,-0.13333801052083202,7.944581231582495
mp-1209240,SO5,"[Element O, Element S]",2,S4 O20,0.0,-0.624350913333334,1.889057209601793
mp-23256,BCl,"[Element B, Element Cl]",2,B32 Cl32,0.9052000000000001,-0.595629319045139,1.502002848545427
mp-1214161,BeO2,"[Element Be, Element O]",2,Be4 O8,0.0,-1.425763454166666,1.845238498744897
mp-1210764,N2F,"[Element F, Element N]",2,N16 F8,0.0,0.16827215791666603,1.471227942069405
mp-27399,SbBr3,"[Element Br, Element Sb]",2,Sb4 Br12,3.1343,-1.002810886249999,4.083166921818979
mp-17146,K2S5,"[Element K, Element S]",2,K8 S20,1.929899999999999,-0.700578589866071,2.110672500110484
mp-1788,As2O5,"[Element As, Element O]",2,As8 O20,1.426,-1.557510087142856,4.440831778137766
mp-1202960,Sb2O3,"[Element O, Element Sb]",2,Sb16 O24,2.3373,-1.7192506070000002,5.419679610801664
mp-1544557,KF3,"[Element F, Element K]",2,K8 F24,0.8685,-1.458083969375,2.523405756565781
mp-1212209,IN4,"[Element I, Element N]",2,I4 N16,0.0,1.136675189499998,4.041952189118872
mp-23317,AsBr3,"[Element As, Element Br]",2,As4 Br12,3.1271,-0.860313386875,3.72693540099669
mp-1203812,SF4,"[Element F, Element S]",2,S8 F32,4.9033999999999995,-1.7032138570625,2.5012406558732403
mp-18609,K2Se5,"[Element K, Element Se]",2,K8 Se20,1.0284,-0.569201022674107,3.684613543492901
mp-23280,AsCl3,"[Element As, Element Cl]",2,As4 Cl12,3.9873000000000003,-0.755685861249999,2.490146680099305
mp-1219421,Si3O8,"[Element O, Element Si]",2,Si12 O32,0.07060000000000001,-2.104962496818182,2.154606167137081
mp-16911,Rb2S5,"[Element Rb, Element S]",2,Rb8 S20,1.9539,-0.9552900410714281,2.621350498819616
mp-27820,B7H10,"[Element B, Element H]",2,B56 H80,2.5503,-0.06215234028743401,0.891215521113322
mp-28410,ThP7,"[Element P, Element Th]",2,Th4 P28,0.0,-0.43145827785713503,4.932786880477674
mp-29174,SiCl2,"[Element Cl, Element Si]",2,Si4 Cl8,2.0151,-1.06551748875,1.6461248217189932
mp-31272,P2O9,"[Element O, Element P]",2,P16 O72,3.088199999999999,-0.8708051717532471,2.272941624915337
mp-28336,Li3P7,"[Element Li, Element P]",2,Li12 P28,1.831999999999999,-0.42609609608333104,2.016029104493912
mp-542814,SiO2,"[Element O, Element Si]",2,Si24 O48,5.5504,-3.265347307499999,2.235711217823113
mp-556961,SiO2,"[Element O, Element Si]",2,Si8 O16,5.4877,-3.264115334583334,2.360860911052234
mp-558226,H2O,"[Element H, Element O]",2,H24 O12,5.776,-1.268944512777777,1.4344078860055731
mp-30520,Tl2S5,"[Element S, Element Tl]",2,Tl8 S20,1.667899999999999,-0.498485183452379,4.9663939722707635
mp-28128,SCl2,"[Element Cl, Element S]",2,S8 Cl16,2.093,-0.11561584347222101,1.612640475164748
mp-29172,SeF4,"[Element F, Element Se]",2,Se4 F16,4.1424,-1.7607326073125011,3.347035519319781
mp-32684,HBr,"[Element Br, Element H]",2,H4 Br4,4.486000000000001,-0.49469028812499904,2.4359291597374693
mp-541055,Cs2Se5,"[Element Cs, Element Se]",2,Cs8 Se20,0.9618000000000001,-0.7328415064732151,4.23069225688993
mp-713,KAs,"[Element As, Element K]",2,K8 As8,0.6695,-0.43754621737500005,3.006523046083559
mp-672372,K2S5,"[Element K, Element S]",2,K8 S20,1.2407,-0.6399772866517861,1.831750584078513
mp-562054,XeO3,"[Element O, Element Xe]",2,Xe4 O12,2.131199999999999,0.9567631737500001,4.239816109889231
mp-558958,H2O,"[Element H, Element O]",2,H24 O12,5.668,-1.2676467697222211,1.429982494057176
mp-729933,CO,"[Element C, Element O]",2,C4 O4,5.7126,-0.6567210600000001,0.890849308053812
mp-734416,NO6,"[Element N, Element O]",2,N4 O24,0.24250000000000002,0.16161603214285603,1.686754254738862
mp-561224,TeO2,"[Element O, Element Te]",2,Te4 O8,2.977999999999999,-1.494220703888888,5.9391630792713554
mp-561664,TeF4,"[Element F, Element Te]",2,Te4 F16,4.0186,-2.216336207,4.446535482331919
mp-568936,Ag2Se,"[Element Ag, Element Se]",2,Ag8 Se4,0.0,-0.13102417302083,8.112695161000696
mp-620372,Rb2Se5,"[Element Rb, Element Se]",2,Rb8 Se20,0.8360999999999991,-0.581435497745535,4.057376288736327
mp-643432,H3N,"[Element H, Element N]",2,H12 N4,4.4529,-0.345091714374999,0.9904183458592871
mp-573514,CsSb,"[Element Cs, Element Sb]",2,Cs8 Sb8,0.5557999999999991,-0.595107882500002,4.360504911769052
mp-616407,N2O3,"[Element N, Element O]",2,N8 O12,0.9366000000000001,-0.444127313499999,1.671123551372273
mp-685014,In2Br3,"[Element Br, Element In]",2,In32 Br48,2.0644,-1.068962764541666,4.186662622920037
mp-776896,Nb2O5,"[Element Nb, Element O]",2,Nb8 O20,2.522599999999999,-2.974983948928571,3.46318718570519
mp-7444,RbSb,"[Element Rb, Element Sb]",2,Rb8 Sb8,0.5423,-0.5141176712499981,3.956814213065774
mp-734819,SbF6,"[Element F, Element Sb]",2,Sb8 F48,0.0,-2.188722635714286,3.09729573429587
mp-7440,NaP,"[Element Na, Element P]",2,Na8 P8,0.8684000000000001,-0.49986311961309404,2.128535623620998
mp-7595,GeF2,"[Element F, Element Ge]",2,Ge4 F8,4.0597,-2.154149663333333,3.880185656014212
mp-776160,Cr2O5,"[Element Cr, Element O]",2,Cr8 O20,0.516,-1.722460426071427,2.916601936871951
mp-7456,SnF2,"[Element F, Element Sn]",2,Sn4 F8,3.2628999999999992,-2.3706701,4.879808842091591
mp-765621,VF5,"[Element F, Element V]",2,V4 F20,3.090699999999999,-2.8338716495833323,2.830067103533886
mp-734430,SeO3,"[Element O, Element Se]",2,Se4 O12,2.1966,-0.727458054335937,2.609030979889268
mp-7441,KP,"[Element K, Element P]",2,K8 P8,1.034999999999999,-0.536587557113094,2.079296273351812
mp-754954,Ag2Se,"[Element Ag, Element Se]",2,Ag8 Se4,0.13839999999999902,-0.128311240520834,7.259399584691568
mp-867934,KF3,"[Element F, Element K]",2,K8 F24,0.09240000000000001,-1.6386723702500001,2.303213934479601
mp-8377,TeO2,"[Element O, Element Te]",2,Te4 O8,3.0604,-1.4950600038888862,5.657354018806982
mp-1181500,Dy3Ge5,"[Element Dy, Element Ge]",2,Dy6 Ge10,0.0,-0.7773433324999991,8.31118719212546
mp-30650,Mg2Ga,"[Element Ga, Element Mg]",2,Mg12 Ga6,0.0,-0.11666052027777701,3.332420463762857
mp-2779,FeS,"[Element Fe, Element S]",2,Fe12 S12,0.0,-0.45790946083333206,5.094471969029963
mp-9563,Li2Sb,"[Element Li, Element Sb]",2,Li12 Sb6,0.0,-0.670160802777775,3.757680373760129
mp-849689,FeO,"[Element Fe, Element O]",2,Fe12 O12,1.160999999999999,-1.377719929166667,5.533046969906426
mp-1187292,Tb3Ge5,"[Element Ge, Element Tb]",2,Tb6 Ge10,0.0,-0.795283786875,8.11238854802105
mp-569320,Sm3Ge5,"[Element Ge, Element Sm]",2,Sm6 Ge10,0.0,-0.7435294250000011,7.507276841197375
mp-1009655,CaC2,"[Element C, Element Ca]",2,Ca1 C2,0.0,0.606723158333332,3.810600729935062
mp-1065290,NdRh3,"[Element Nd, Element Rh]",2,Nd1 Rh3,0.0,0.004163803125001001,9.986700421566384
mp-1008865,NdCd2,"[Element Cd, Element Nd]",2,Nd1 Cd2,0.0,-0.313973819166664,7.988053018533677
mp-1001581,LiC6,"[Element C, Element Li]",2,Li1 C6,0.0,-0.034716359523808006,2.23771232676254
mp-10141,SmB2,"[Element B, Element Sm]",2,Sm1 B2,0.0,-0.45281292366667003,7.359401433589032
mp-1009823,BeB2,"[Element B, Element Be]",2,Be1 B2,0.0,0.12022825555555501,2.378432392327146
mp-1008755,SrB2,"[Element B, Element Sr]",2,Sr1 B2,0.0,0.12886528574074002,4.309087358469546
mp-1008676,TiS2,"[Element S, Element Ti]",2,Ti1 S2,0.0,-0.323945729444443,3.9375306834200883
mp-1025297,SmC6,"[Element C, Element Sm]",2,Sm1 C6,0.0,-0.062454172857142005,4.915309372868456
mp-1077071,GdCo5,"[Element Co, Element Gd]",2,Gd1 Co5,0.0,-0.051938176666666,9.011168409650171
mp-1019271,TaN2,"[Element N, Element Ta]",2,Ta2 N4,0.0,-0.16754198994444403,9.671036329727738
mp-1021323,LiC12,"[Element C, Element Li]",2,Li1 C12,0.0,-0.023266661282050002,2.251204800559
mp-1011376,CeSe2,"[Element Ce, Element Se]",2,Ce1 Se2,0.0,-1.349966594895832,6.9213236959783035
mp-1009695,CaB2,"[Element B, Element Ca]",2,Ca1 B2,0.0,-0.19184305208333402,2.794106806770991
mp-1059462,MoN,"[Element Mo, Element N]",2,Mo1 N1,0.0,0.7107844775000001,6.530565974552215
mp-1008568,ZrTi2,"[Element Ti, Element Zr]",2,Zr1 Ti2,0.0,0.037773083888888004,5.34739686683685
mp-1083,NpB2,"[Element B, Element Np]",2,Np1 B2,0.0,-0.5809013012499991,12.364662609970827
mp-1072579,ThCo5,"[Element Co, Element Th]",2,Th1 Co5,0.0,2.431201507166671,3.134233434820946
mp-1025030,ErPt5,"[Element Er, Element Pt]",2,Er1 Pt5,0.0,-0.73209813555556,17.64852700524742
mp-1025137,NpNi5,"[Element Ni, Element Np]",2,Np1 Ni5,0.0,-0.24091817145833203,11.027252357381334
mp-1025223,Hf4Al3,"[Element Al, Element Hf]",2,Hf4 Al3,0.0,-0.44648299857142804,9.937217757235322
mp-1037,PrPt5,"[Element Pr, Element Pt]",2,Pr1 Pt5,0.0,-0.6931851386111051,16.655791221925867
mp-1059765,CoBr,"[Element Br, Element Co]",2,Co1 Br1,0.0,0.4389612425,4.832674875779708
mp-1063610,UV2,"[Element U, Element V]",2,U1 V2,0.0,0.48121822333332803,11.277269141879561
mp-1075,SmNi5,"[Element Ni, Element Sm]",2,Sm1 Ni5,0.0,-0.298547072499999,9.103016928877004
mp-1025,ThAu2,"[Element Au, Element Th]",2,Th1 Au2,0.0,-0.719212409999992,15.22616882008103
mp-10681,B2Au,"[Element Au, Element B]",2,B2 Au1,0.0,0.668647770555554,10.893524124301644
mp-10144,B2W,"[Element B, Element W]",2,B2 W1,0.0,-0.063228492499997,12.751833555707151
mp-10145,YbB2,"[Element B, Element Yb]",2,Yb1 B2,0.0,-0.7654443500000001,9.484860198108272
mp-10186,PuSi2,"[Element Pu, Element Si]",2,Pu1 Si2,0.0,-0.582309402916668,8.843872675507523
mp-1064690,NdRu3,"[Element Nd, Element Ru]",2,Nd1 Ru3,0.0,0.5202619975,9.953596088238697
mp-11267,BaHg2,"[Element Ba, Element Hg]",2,Ba2 Hg4,0.0,-0.501785035000004,9.168727527595223
mp-11283,ZrBe5,"[Element Be, Element Zr]",2,Zr1 Be5,0.0,-0.241093112499999,3.6178278377114923
mp-11301,HoCd2,"[Element Cd, Element Ho]",2,Ho1 Cd2,0.0,-0.27246617833332704,9.028288477685662
mp-1103,LuSi2,"[Element Lu, Element Si]",2,Lu1 Si2,0.0,-0.44489226722222003,6.981247968454611
mp-1145,TiB2,"[Element B, Element Ti]",2,Ti1 B2,0.0,-1.099568030555556,4.506928933888999
mp-11296,ErCd2,"[Element Cd, Element Er]",2,Er1 Cd2,0.0,-0.268625276666665,9.147664619313778
mp-11280,TiBe12,"[Element Be, Element Ti]",2,Ti1 Be12,0.0,-0.06213221948718001,2.282416043395455
mp-1108,TaB2,"[Element B, Element Ta]",2,Ta1 B2,0.0,-0.66259926411111,12.273478624326827
mp-11369,ErHg2,"[Element Er, Element Hg]",2,Er1 Hg2,0.0,-0.43170292611111405,13.46848460216032
mp-11294,DyCd2,"[Element Cd, Element Dy]",2,Dy1 Cd2,0.0,-0.28150662388888203,8.87164805110979
mp-11219,LuB2,"[Element B, Element Lu]",2,Lu1 B2,0.0,-0.7770810205555561,9.721866624341743
mp-1100266,CeSe2,"[Element Ce, Element Se]",2,Ce34 Se68,1.0135,-1.38778567391544,1.746123354160723
mp-11463,LaHg2,"[Element Hg, Element La]",2,La1 Hg2,0.0,-0.577605156666673,11.350917098790072
mp-11287,CaHg2,"[Element Ca, Element Hg]",2,Ca1 Hg2,0.0,-0.5177227816666671,9.64031267190406
mp-11468,NdHg2,"[Element Hg, Element Nd]",2,Nd1 Hg2,0.0,-0.5219421108333311,11.918746853130344
mp-11382,NdFe5,"[Element Fe, Element Nd]",2,Nd1 Fe5,0.0,0.039665015416665006,7.541484516469147
mp-1140,NdCu5,"[Element Cu, Element Nd]",2,Nd1 Cu5,0.0,-0.16185717291666601,8.479588402846812
mp-11419,ThGa2,"[Element Ga, Element Th]",2,Th1 Ga2,0.0,-0.7396896699999991,9.265972171034042
mp-11311,TmCd2,"[Element Cd, Element Tm]",2,Tm1 Cd2,0.0,-0.256063600000003,9.279958355100902
mp-11367,DyHg2,"[Element Dy, Element Hg]",2,Dy1 Hg2,0.0,-0.46705707,13.134783389174245
mp-11317,CeFe5,"[Element Ce, Element Fe]",2,Ce1 Fe5,0.0,-0.007688359999998001,7.718455644813049
mp-11491,LuNi5,"[Element Lu, Element Ni]",2,Lu1 Ni5,0.0,-0.322797154444441,10.09169305805608
mp-11461,HoHg2,"[Element Hg, Element Ho]",2,Ho1 Hg2,0.0,-0.450744010000003,13.290170676720276
mp-11385,YFe5,"[Element Fe, Element Y]",2,Y1 Fe5,0.0,-0.035446869999998,6.8162536618822696
mp-11466,NaHg2,"[Element Hg, Element Na]",2,Na1 Hg2,0.0,-0.264172991666669,9.570282884259637
mp-11277,ScBe5,"[Element Be, Element Sc]",2,Sc1 Be5,0.0,-0.19542567333333302,2.375613238480116
mp-11472,SrHg2,"[Element Hg, Element Sr]",2,Sr1 Hg2,0.0,-0.48318225500000506,9.277138093846387
mp-11363,TbCu5,"[Element Cu, Element Tb]",2,Tb1 Cu5,0.0,-0.20235930666666702,9.074176620466746
mp-11553,TlPt,"[Element Pt, Element Tl]",2,Tl3 Pt3,0.0,0.462474104861115,13.06264728733433
mp-11526,TmNi5,"[Element Ni, Element Tm]",2,Tm1 Ni5,0.0,-0.338314189999998,9.876248769436256
mp-11826,CaPd5,"[Element Ca, Element Pd]",2,Ca1 Pd5,0.0,-0.366331009999998,8.811404423597937
mp-12062,AgB2,"[Element Ag, Element B]",2,Ag1 B2,0.0,0.523821864999999,6.668703845978472
mp-1172848,Sb2Te3,"[Element Sb, Element Te]",2,Sb2 Te3,0.0,0.001061572,6.709747720609801
mp-1207109,SmHg2,"[Element Hg, Element Sm]",2,Sm1 Hg2,0.0,-0.507890725,12.378724804406513
mp-12072,UAu2,"[Element Au, Element U]",2,U1 Au2,0.0,-0.48725831833332706,16.595176984244002
mp-1222698,Li2B,"[Element B, Element Li]",2,Li2 B1,0.0,0.327427024166666,1.541237491311348
mp-1181137,GdFe5,"[Element Fe, Element Gd]",2,Gd1 Fe5,0.0,0.00975087,8.004732979569559
mp-1228687,B4Mo,"[Element B, Element Mo]",2,B12 Mo3,0.0,-0.011220259333333002,5.092449894871613
mp-1179,DyNi5,"[Element Dy, Element Ni]",2,Dy1 Ni5,0.0,-0.327578571944444,9.597905717597026
mp-1179413,TaS2,"[Element S, Element Ta]",2,Ta1 S2,0.0,0.22342789588889,5.3614652364046425
mp-1207072,Hf2U,"[Element Hf, Element U]",2,Hf2 U1,0.0,0.356737243333327,14.225309731687942
mp-1180047,NiO,"[Element Ni, Element O]",2,Ni1 O1,0.0,0.09570726250000101,4.86350294854803
mp-12055,LaCd2,"[Element Cd, Element La]",2,La1 Cd2,0.0,-0.34049516166666505,7.484682306889419
mp-1217774,Ta2C,"[Element C, Element Ta]",2,Ta2 C1,0.0,1.643542371777783,13.250082645485946
mp-1206978,Zr2U,"[Element U, Element Zr]",2,Zr2 U1,0.0,0.29950209000000405,9.74010892808909
mp-1209,RbAu5,"[Element Au, Element Rb]",2,Rb1 Au5,0.0,-0.18988399791667002,13.469520182517382
mp-1180635,La2O3,"[Element La, Element O]",2,La2 O3,0.0,-3.640272871000001,4.679824854126312
mp-1206486,SrIn5,"[Element In, Element Sr]",2,Sr1 In5,0.0,-0.13414555222222002,5.9734695147555925
mp-1206995,K2Ag,"[Element Ag, Element K]",2,K2 Ag1,0.0,0.18549979391666402,2.536699425771011
mp-1214766,AuC2,"[Element Au, Element C]",2,Au1 C2,2.8504,1.543402631666666,4.240266569128748
mp-1184881,HoMg2,"[Element Ho, Element Mg]",2,Ho1 Mg2,0.0,-0.032908734999999,4.646554601766003
mp-1204057,SiO2,"[Element O, Element Si]",2,Si72 O144,5.6518,-3.250247887129631,1.563004391966636
mp-11562,TbRh5,"[Element Rh, Element Tb]",2,Tb1 Rh5,0.0,-0.29776225444444504,11.174345493033263
mp-1200,TbCo5,"[Element Co, Element Tb]",2,Tb1 Co5,0.0,-0.08300625277777801,9.060572374246588
mp-1210,ThCd2,"[Element Cd, Element Th]",2,Th1 Cd2,0.0,-0.216780359999996,9.977082971035715
mp-11565,YRh5,"[Element Rh, Element Y]",2,Y1 Rh5,0.0,-0.285145789999999,9.68070942242019
mp-1219,BaGa2,"[Element Ba, Element Ga]",2,Ba1 Ga2,0.0,-0.46331017166666505,5.279181331146061
mp-1183833,DyMg2,"[Element Dy, Element Mg]",2,Dy1 Mg2,0.0,-0.040059000555553004,4.567954058487887
mp-1225307,DyCu5,"[Element Cu, Element Dy]",2,Dy1 Cu5,0.0,-0.203688029166668,9.20239888390735
mp-1606,NbAu2,"[Element Au, Element Nb]",2,Nb1 Au2,0.0,-0.16714933,15.560619327549917
mp-1429,SmCo5,"[Element Co, Element Sm]",2,Sm1 Co5,0.0,-0.0452820975,8.724372703395728
mp-1298,KAu5,"[Element Au, Element K]",2,K1 Au5,0.0,-0.25602832062499603,13.208196338582082
mp-1535,TbSi2,"[Element Si, Element Tb]",2,Tb1 Si2,0.0,-0.561173073333336,6.24171875927304
mp-1472,ZrB2,"[Element B, Element Zr]",2,Zr1 B2,0.0,-1.066709233333334,6.070775216281119
mp-1491,VB2,"[Element B, Element V]",2,V1 B2,0.0,-0.7610838883333331,5.165601323982429
mp-1731,LaCo5,"[Element Co, Element La]",2,La1 Co5,0.0,0.01268050036995,8.320907659630928
mp-1241,BaAg2,"[Element Ag, Element Ba]",2,Ba2 Ag4,0.0,-0.28819284777777604,6.511946798117878
mp-12752,Zr4Al3,"[Element Al, Element Zr]",2,Zr4 Al3,0.0,-0.51850827,5.354868453873113
mp-1497,TaN,"[Element N, Element Ta]",2,Ta3 N3,0.0,-0.907127139708331,13.810967218532168
mp-1567,ThNi5,"[Element Ni, Element Th]",2,Th1 Ni5,0.0,-0.40837344166666606,10.616529298532479
mp-1228707,AuC,"[Element Au, Element C]",2,Au1 C1,0.0,2.113772146249999,9.954094866193968
mp-1256,HoGa2,"[Element Ga, Element Ho]",2,Ho1 Ga2,0.0,-0.6217118166666661,8.257514816458807
mp-12892,CaSi2,"[Element Ca, Element Si]",2,Ca1 Si2,0.0,-0.345148746666667,2.603528715899792
mp-1514,UB2,"[Element B, Element U]",2,U1 B2,0.0,-0.617520190000002,12.918052178965166
mp-1252,ZrBe2,"[Element Be, Element Zr]",2,Zr1 Be2,0.0,-0.16392619333333502,4.4199065952450685
mp-1331,YCd2,"[Element Cd, Element Y]",2,Y1 Cd2,0.0,-0.29284685666666704,7.109369322193102
mp-1384,LaIr5,"[Element Ir, Element La]",2,La1 Ir5,0.0,-0.304425874166666,16.758059047546517
mp-1260,SrPd5,"[Element Pd, Element Sr]",2,Sr1 Pd5,0.0,-0.37346798833333406,9.203370342712624
mp-1524385,CeAg2,"[Element Ag, Element Ce]",2,Ce2 Ag4,0.0,-0.175438727777775,8.541598145220954
mp-1542,YB2,"[Element B, Element Y]",2,Y1 B2,0.0,-0.628652464999999,5.035861217892497
mp-1566,SmFe5,"[Element Fe, Element Sm]",2,Sm1 Fe5,0.0,0.006497710833333,7.780865722622505
mp-1671,YbSi2,"[Element Si, Element Yb]",2,Yb1 Si2,0.0,-0.47750595500000004,6.993473643460681
mp-1709,U2Ti,"[Element Ti, Element U]",2,U2 Ti1,0.0,-0.09785313555555701,15.906128345547826
mp-12602,PrZn5,"[Element Pr, Element Zn]",2,Pr1 Zn5,0.0,-0.302519455277776,7.424267165163866
mp-1607,YbCu5,"[Element Cu, Element Yb]",2,Yb1 Cu5,0.0,-0.20909298916666802,9.60161507333768
mp-12707,Zr2Np,"[Element Np, Element Zr]",2,Zr2 Np1,0.0,0.5425205737500011,10.439490428203017
mp-13449,YbGa2,"[Element Ga, Element Yb]",2,Yb1 Ga2,0.0,-0.6898012116666661,8.743416419992283
mp-1525815,AcMg5,"[Element Ac, Element Mg]",2,Ac1 Mg5,0.0,-0.035826379583333005,3.533259903838494
mp-1377,ThCu2,"[Element Cu, Element Th]",2,Th1 Cu2,0.0,-0.20136215666666601,10.365853362378477
mp-1553,HoNi5,"[Element Ho, Element Ni]",2,Ho1 Ni5,0.0,-0.33053895249999804,9.692196414420755
mp-1832,LaPt5,"[Element La, Element Pt]",2,La1 Pt5,0.0,-0.849367524166666,16.503265776026662
mp-1774,ErB2,"[Element B, Element Er]",2,Er1 B2,0.0,-0.7018323727777791,8.932986534107968
mp-1814,BaAg5,"[Element Ag, Element Ba]",2,Ba1 Ag5,0.0,-0.155002803055553,8.20275388423451
mp-1805,ErRh5,"[Element Er, Element Rh]",2,Er1 Rh5,0.0,-0.29151228833333204,11.031628076658382
mp-1734,CaZn5,"[Element Ca, Element Zn]",2,Ca1 Zn5,0.0,-0.227941309999998,5.958730943141993
mp-1943796,TbHg2,"[Element Hg, Element Tb]",2,Tb1 Hg2,0.0,-0.48267992833333,12.935231340213813
mp-2066,EuCu5,"[Element Cu, Element Eu]",2,Eu1 Cu5,0.0,-0.10764859416666801,8.587237542803393
mp-19773,GdGa2,"[Element Ga, Element Gd]",2,Gd1 Ga2,0.0,-0.6546542750000011,7.721999613825628
mp-19862,EuSi2,"[Element Eu, Element Si]",2,Eu1 Si2,0.0,-0.511744271666666,5.561646496083583
mp-19876,InNi,"[Element In, Element Ni]",2,In3 Ni3,0.0,-0.21320580000000103,8.455777992923798
mp-2016621,PuCu2,"[Element Cu, Element Pu]",2,Pu2 Cu4,0.0,-0.08167923125000201,11.972154158643878
mp-1752,HoSi2,"[Element Ho, Element Si]",2,Ho1 Si2,0.0,-0.539797926499998,6.486706565853466
mp-20125,GdSi2,"[Element Gd, Element Si]",2,Gd1 Si2,0.0,-0.5208314900000001,6.099553813286184
mp-19839,LaGa2,"[Element Ga, Element La]",2,La1 Ga2,0.0,-0.8260203783333321,6.447550961295566
mp-20719,EuHg2,"[Element Eu, Element Hg]",2,Eu1 Hg2,0.0,-0.542237623333335,11.314826852254352
mp-1754,UHg2,"[Element Hg, Element U]",2,U1 Hg2,0.0,0.10814694999999101,15.039132024225212
mp-182,SrGa2,"[Element Ga, Element Sr]",2,Sr1 Ga2,0.0,-0.5920677066666661,4.887167773462105
mp-1824,NdNi5,"[Element Nd, Element Ni]",2,Nd1 Ni5,0.0,-0.275781184583332,8.86029578116186
mp-1831,SrAu5,"[Element Au, Element Sr]",2,Sr1 Au5,0.0,-0.484339630000003,13.880654720960724