material_id,formula_pretty,elements,nelements,composition,band_gap,formation_energy_per_atom,density
mp-1255188,MgSi2,"[Element Mg, Element Si]",2,Mg4 Si8,0.0,0.17415035916666602,2.282280562940744
mp-1247896,Al2O3,"[Element Al, Element O]",2,Al16 O24,3.191899999999999,-3.231849478750001,3.082586752352194
mp-1272087,V2O3,"[Element O, Element V]",2,V6 O9,1.520699999999999,-2.448673359666667,4.762620363472198
mp-1247846,Al2O3,"[Element Al, Element O]",2,Al16 O24,3.6167,-3.212082935999999,3.404554000532041
mp-1262288,MgSi2,"[Element Mg, Element Si]",2,Mg4 Si8,0.0,0.265184510833333,2.6147188397606973
mp-1271978,Fe3O4,"[Element Fe, Element O]",2,Fe12 O16,1.208999999999999,-1.616116864285713,4.883382401602214
mp-1344756,Mg4Si7,"[Element Mg, Element Si]",2,Mg8 Si14,0.0,0.521471923181818,2.4817610149082743
mp-1376661,Al2S3,"[Element Al, Element S]",2,Al12 S18,0.0,-0.30627949402083304,1.649600203584016
mp-1341154,Mg5Si9,"[Element Mg, Element Si]",2,Mg10 Si18,0.0,0.6936130364285711,2.4033139480207373
mp-1359927,Al2O3,"[Element Al, Element O]",2,Al16 O24,0.9567999999999991,-2.487282496499999,3.28386458497211
mp-1326565,Mg7Si4,"[Element Mg, Element Si]",2,Mg14 Si8,0.0,0.33988204136363603,2.144237269435018
mp-1343930,Ta11O2,"[Element O, Element Ta]",2,Ta22 O4,0.0,7.520195506487179,15.18265783372902
mp-1347342,Mg5Si9,"[Element Mg, Element Si]",2,Mg10 Si18,0.0,0.7031619910714281,2.518736682347822
mp-1356631,SbO2,"[Element O, Element Sb]",2,Sb12 O24,1.2083,-1.676721270555555,4.456682878699516
mp-1364247,Nb2O5,"[Element Nb, Element O]",2,Nb16 O40,0.9797999999999991,-2.8525451125,4.260513597569688
mp-1359489,BiO2,"[Element Bi, Element O]",2,Bi12 O24,0.35389999999999905,-1.286001741666668,6.6709533295045595
mp-1378759,Mg5Si9,"[Element Mg, Element Si]",2,Mg10 Si18,0.0,0.949476291785714,2.4355324049612053
mp-1395134,MoF4,"[Element F, Element Mo]",2,Mo2 F8,3.1313,-2.550012719249999,3.921369789211221
mp-1354450,FeO2,"[Element Fe, Element O]",2,Fe12 O24,0.0,-1.151238372777776,3.914616064252285
mp-1353031,VO2,"[Element O, Element V]",2,V16 O32,0.6626999999999991,-2.3406317410416673,3.74848344198844
mp-1391176,SiO4,"[Element O, Element Si]",2,Si3 O12,0.1484,-0.520408273999999,1.982164048355449
mp-1383199,TiF4,"[Element F, Element Ti]",2,Ti2 F8,4.3454,-3.611293161666666,2.866872903290787
mp-1372329,Ta2O5,"[Element O, Element Ta]",2,Ta6 O15,0.0,-0.379350405190474,8.004003371589015
mp-1351349,BiO2,"[Element Bi, Element O]",2,Bi16 O32,0.030100000000000002,-1.373909171875,8.156943067448976
mp-1385353,Mg4Si3,"[Element Mg, Element Si]",2,Mg8 Si6,0.0,2.745813985,2.286132609085723
mp-1350563,WO2,"[Element O, Element W]",2,W16 O32,1.3423,-1.905092613124999,9.192675600894233
mp-1389247,Mg4Si3,"[Element Mg, Element Si]",2,Mg8 Si6,0.0,1.5832186485714281,2.182141779047109
mp-1398291,MgSi2,"[Element Mg, Element Si]",2,Mg4 Si8,0.0,0.610441615833333,2.36459687591721
mp-1351647,MoO2,"[Element Mo, Element O]",2,Mo16 O32,0.8315999999999991,-1.722660429374999,4.842247193445638
mp-1383505,Bi2O3,"[Element Bi, Element O]",2,Bi2 O3,0.0,-0.734938399000001,8.34455812478178
mp-1380432,WO2,"[Element O, Element W]",2,W12 O24,1.677999999999999,-1.723603812499999,7.549000480044595
mp-1402840,WF4,"[Element F, Element W]",2,W2 F8,1.165,-2.625930304,5.234222531482871
mp-1400283,Mg4Si3,"[Element Mg, Element Si]",2,Mg8 Si6,0.0,1.892519448571428,2.11464890738741
mp-1423059,SbN,"[Element N, Element Sb]",2,Sb2 N2,1.110999999999999,0.22292971999999903,5.796316030552932
mp-1398433,SiO2,"[Element O, Element Si]",2,Si4 O8,0.0,1.394443533333332,2.033581259998318
mp-1443513,SbF4,"[Element F, Element Sb]",2,Sb2 F8,2.520299999999999,-2.475413657,4.660405130461532
mp-1445089,MoO3,"[Element Mo, Element O]",2,Mo4 O12,1.8186,-1.9146022556250002,4.177559206028882
mp-1403979,Mg3Si4,"[Element Mg, Element Si]",2,Mg6 Si8,0.0,2.531083272142857,2.357764678154613
mp-1403490,Mg3Si4,"[Element Mg, Element Si]",2,Mg6 Si8,0.0,1.461947643571428,2.330452618623002
mp-2901386,Mg3Si4,"[Element Mg, Element Si]",2,Mg6 Si8,0.0,0.149759002142856,2.341024625669617
mp-32554,Ta2I5,"[Element I, Element Ta]",2,Ta2 I5,0.0,-0.30288605138095104,4.574195765820895
mp-32633,Dy6Se11,"[Element Dy, Element Se]",2,Dy24 Se44,0.5265000000000001,-1.9300734111580882,7.622939262884551
mp-2214725,V5O12,"[Element O, Element V]",2,V5 O12,1.2909,-2.234866894117647,3.605486573252278
mp-2912462,Mg5Si9,"[Element Mg, Element Si]",2,Mg10 Si18,0.0,0.18832471642857102,2.442503694908995
mp-1524481,H3F2,"[Element F, Element H]",2,H6 F4,8.309,-1.2748855942500001,1.246835024098617
mp-2215229,Co7O12,"[Element Co, Element O]",2,Co7 O12,0.1673,-1.003273052105263,5.069355950460887
mp-2761342,U11Se20,"[Element Se, Element U]",2,U11 Se20,0.0,-1.6119887450403252,8.76332868417215
mp-1399135,Mg3Si4,"[Element Mg, Element Si]",2,Mg6 Si8,0.0,1.9386100428571431,2.393241641276326
mp-1406221,Mg3Si4,"[Element Mg, Element Si]",2,Mg6 Si8,0.0,2.265168996428571,2.421412318194495
mp-1399879,Mg3Si4,"[Element Mg, Element Si]",2,Mg6 Si8,0.0,2.363638366428571,2.452625549068926
mp-1404518,Mg4Si3,"[Element Mg, Element Si]",2,Mg8 Si6,0.0,1.32268784,2.165541481473815
mp-2051155,FeCl3,"[Element Cl, Element Fe]",2,Fe2 Cl6,1.3509,-1.105707139999999,2.271085885433305
mp-1443809,CrN2,"[Element Cr, Element N]",2,Cr4 N8,0.0,4.6375799662500015,2.615123843496346
mp-1975044,Gd4Sb3,"[Element Gd, Element Sb]",2,Gd8 Sb6,0.0,-1.160777204285713,8.167374700539593
mp-32833,Ho6Se11,"[Element Ho, Element Se]",2,Ho24 Se44,0.5446,-1.9085931538051462,7.7714942576899215
mp-2041583,MoF4,"[Element F, Element Mo]",2,Mo2 F8,1.189099999999999,-2.566888779000001,4.511244018674225
mp-1546006,LiS4,"[Element Li, Element S]",2,Li2 S8,2.2075,-0.24543709558333202,0.234823623609684
mp-556588,SiO2,"[Element O, Element Si]",2,Si4 O8,4.0078,-2.9639795049999993,2.974995912881846
mp-556788,SiO2,"[Element O, Element Si]",2,Si4 O8,4.7965,-3.025782889166667,2.696521765071871
mp-32868,Ag2S,"[Element Ag, Element S]",2,Ag6 S3,0.6242999999999991,-0.061040652048610006,6.338404497074927
mp-556985,SiO2,"[Element O, Element Si]",2,Si4 O8,5.6098,-3.219747076666666,1.956224705325687
mp-38238,Ag2O,"[Element Ag, Element O]",2,Ag6 O3,0.0,-0.20694484833333102,6.869259737164115
mp-32854,H11O8,"[Element H, Element O]",2,H11 O8,1.0035,-1.036703904407894,1.121431138699857
mp-32983,Nb3S5,"[Element Nb, Element S]",2,Nb12 S20,0.0,-1.420107923749999,4.896630350356049
mp-530074,B4C,"[Element B, Element C]",2,B56 C14,0.0,-0.033240946095239005,2.426415294143199
mp-556319,SiO2,"[Element O, Element Si]",2,Si4 O8,5.2035,-3.145057900833333,2.302595508962697
mp-556880,SiO2,"[Element O, Element Si]",2,Si4 O8,5.0612,-3.121236586666666,2.245800186783794
mp-33024,H2S,"[Element H, Element S]",2,H8 S4,4.0901,-0.16266348427083202,1.228520214773911
mp-32873,Hf23Se25,"[Element Hf, Element Se]",2,Hf23 Se25,0.0,-1.32180747972005,10.48747567648788
mp-530018,Ta27S50,"[Element S, Element Ta]",2,Ta27 S50,0.0,-1.394484447961036,7.171891119357857
mp-555948,C37F21,"[Element C, Element F]",2,C74 F42,2.0208,-0.6273585803987081,2.001864544663951
mp-556994,SiO2,"[Element O, Element Si]",2,Si4 O8,5.3836,-3.184553575833334,2.320045639110383
mp-557004,SiO2,"[Element O, Element Si]",2,Si12 O24,5.5806000000000004,-3.251989495555557,1.790678150075335
mp-557873,SiO2,"[Element O, Element Si]",2,Si4 O8,5.6607,-3.207308364999999,2.033581162327374
mp-633538,B9C,"[Element B, Element C]",2,B18 C2,0.0,0.29746549258333305,2.422237925198366
mp-611224,VS2,"[Element S, Element V]",2,V1 S2,0.0,1.056313655,1.409588853833271
mp-663422,SiO2,"[Element O, Element Si]",2,Si8 O16,4.3608,-3.056898270833333,2.011710084937026
mp-632442,Al4C3,"[Element Al, Element C]",2,Al4 C3,0.0,0.168746448571429,2.998670890049211
mp-664980,K2P3,"[Element K, Element P]",2,K8 P12,1.0518,-0.541286068285711,1.9125772018923142
mp-643430,Al2S3,"[Element Al, Element S]",2,Al12 S18,0.0,-0.691037594354166,1.6496003052354902
mp-673649,Zr23S32,"[Element S, Element Zr]",2,Zr23 S32,0.0,-1.834789135636363,4.661589993811543
mp-623782,EuAg,"[Element Ag, Element Eu]",2,Eu4 Ag4,0.2822,2.188915018749998,0.22768914928434902
mp-638900,Si3O7,"[Element O, Element Si]",2,Si6 O14,0.10310000000000001,-2.0269527185,0.9704397212062941
mp-673255,Cu9Se8,"[Element Cu, Element Se]",2,Cu9 Se8,0.0,-0.17552827632353202,6.068329004769535
mp-635425,AlF3,"[Element Al, Element F]",2,Al2 F6,6.7775,-3.59402027375,3.5297101780516202
mp-645449,Te3Au2,"[Element Au, Element Te]",2,Te36 Au24,0.0,-0.046720417041675004,9.648883749402199
mp-620471,Cs3Te22,"[Element Cs, Element Te]",2,Cs3 Te22,0.0,-0.200462437766659,5.453119581154527
mp-664137,GeS2,"[Element Ge, Element S]",2,Ge6 S12,2.149,-0.645240488333332,2.710370354464526
mp-673637,Ti9S10,"[Element S, Element Ti]",2,Ti27 S30,0.0,-1.676394082719297,4.163818216876962
mp-673645,Mo7S8,"[Element Mo, Element S]",2,Mo14 S16,0.0,-0.649492895833333,5.689602949477235
mp-673654,As8S9,"[Element As, Element S]",2,As24 S27,0.049499999999999,0.09929311059436101,2.393683365976418
mp-673673,NdO3,"[Element Nd, Element O]",2,Nd2 O6,0.0,-2.033777950624999,5.561951030345709
mp-673681,Ta11O2,"[Element O, Element Ta]",2,Ta22 O4,0.0,-0.493306778512819,15.182657699249075
mp-673671,U11O5,"[Element O, Element U]",2,U11 O5,0.0,-1.424743940312495,14.897797109521733
mp-673700,Nb2Sb,"[Element Nb, Element Sb]",2,Nb14 Sb7,0.0,-0.027746308571425002,8.38219971562791
mp-673683,Sn16P15,"[Element P, Element Sn]",2,Sn16 P15,0.0,0.304412281785714,4.42231838719379
mp-645418,FeCl3,"[Element Cl, Element Fe]",2,Fe2 Cl6,0.0,-1.014692086249999,2.523933200322172
mp-658803,Au2O3,"[Element Au, Element O]",2,Au4 O6,0.7390000000000001,-0.431655587,10.406696031567849
mp-661384,P2O5,"[Element O, Element P]",2,P4 O10,4.9527,-2.402217464183673,2.50812236743942
mp-655446,VS2,"[Element S, Element V]",2,V1 S2,0.0,0.740047435,1.445805970607009
mp-684677,Al2O3,"[Element Al, Element O]",2,Al16 O24,3.976099999999999,-3.2653915165000003,3.47743332606404
mp-684594,Ce16O27,"[Element Ce, Element O]",2,Ce32 O54,0.0,-3.8895861489534873,6.519696282294703
mp-678007,Sr3As4,"[Element As, Element Sr]",2,Sr6 As8,0.652,-1.126214365714286,4.560395953817337
mp-675211,WO3,"[Element O, Element W]",2,W7 O21,2.4793,-2.060571449464285,4.8531772143454965
mp-680260,Ti45Se16,"[Element Se, Element Ti]",2,Ti45 Se16,0.0,-0.7790107801229511,5.622256430896447
mp-684627,Ce13O24,"[Element Ce, Element O]",2,Ce13 O24,0.0,-3.933344505135134,6.743041250495328
mp-676241,FeCl3,"[Element Cl, Element Fe]",2,Fe2 Cl6,0.6636000000000001,-1.140324741249999,2.200413099857064
mp-684713,Al2O3,"[Element Al, Element O]",2,Al16 O24,3.221899999999999,-3.223608216,3.285520964131543
mp-684626,As12S13,"[Element As, Element S]",2,As24 S26,0.4918,0.1155094557875,2.4863852676504923
mp-674644,Bi2O3,"[Element Bi, Element O]",2,Bi8 O12,0.6421,-1.021842244500001,8.083446367760068
mp-680944,Nb2O5,"[Element Nb, Element O]",2,Nb16 O40,1.764,-3.033832735357143,4.259981562208794
mp-674831,Cu2S,"[Element Cu, Element S]",2,Cu12 S6,0.0,-0.10112939690972,5.300124502416815
mp-684617,Bi2O3,"[Element Bi, Element O]",2,Bi6 O9,1.008099999999999,-1.524240672333335,8.53981971227616
mp-684619,Pr27Se40,"[Element Pr, Element Se]",2,Pr27 Se40,0.0,-2.189709400708956,6.331735981684793
mp-684081,AsS,"[Element As, Element S]",2,As24 S24,0.0,0.123212317031248,2.6430550264384323
mp-675957,Sb26O53,"[Element O, Element Sb]",2,Sb26 O53,1.2218,-1.403176748670886,6.058111522173256
mp-684654,Bi2O3,"[Element Bi, Element O]",2,Bi2 O3,1.3046,-1.5348958450000012,8.344559748914879
mp-684591,Al2O3,"[Element Al, Element O]",2,Al16 O24,3.3421,-3.30116479525,3.482552267854382
mp-682953,Sr3P4,"[Element P, Element Sr]",2,Sr6 P8,0.9465999999999991,-1.099777869557822,3.484958333457327
mp-684678,H2O,"[Element H, Element O]",2,H28 O14,0.0539,-0.832501211071428,1.123379349852431
mp-684691,Tm23Se32,"[Element Se, Element Tm]",2,Tm23 Se32,0.0,-2.139217665863639,7.2217802479317434
mp-684726,La39Se56,"[Element La, Element Se]",2,La39 Se56,0.0,-2.318870057236841,6.195883560493402
mp-684747,Bi2O3,"[Element Bi, Element O]",2,Bi64 O96,1.6840000000000002,-1.604322843187501,8.749139011971126
mp-684860,Sm39S56,"[Element S, Element Sm]",2,Sm39 S56,0.0,-2.332588432578946,5.931953829470892
mp-684881,Mn27Sb26,"[Element Mn, Element Sb]",2,Mn27 Sb26,0.0,-0.28589921205595004,7.286460033331779
mp-684897,Ta2O5,"[Element O, Element Ta]",2,Ta6 O15,3.076199999999999,-3.267408241380952,8.004004301344976
mp-685036,Al2O3,"[Element Al, Element O]",2,Al16 O24,3.298499999999999,-3.31575971325,3.573288358800939
mp-684856,As24S25,"[Element As, Element S]",2,As24 S25,0.0824,0.077696917315051,2.855006431181804
mp-685023,Sr4N3,"[Element N, Element Sr]",2,Sr4 N3,0.0,-0.479340733749999,4.257228319615622
mp-684898,Cu18S11,"[Element Cu, Element S]",2,Cu18 S11,0.0,-0.158733556641521,5.510536883129754
mp-685089,K57Se34,"[Element K, Element Se]",2,K57 Se34,0.0,-1.164676959702609,2.5948294157720593
mp-684943,Ta22O21,"[Element O, Element Ta]",2,Ta22 O21,0.0,-1.7248609308449612,10.95059549097501
mp-684958,TaO10,"[Element O, Element Ta]",2,Ta1 O10,0.0,-0.6033501379393941,3.256335470931361
mp-684966,Tb8O13,"[Element O, Element Tb]",2,Tb16 O26,0.0,-3.726696077301588,7.660472057008432
mp-684970,Cu19Se11,"[Element Cu, Element Se]",2,Cu19 Se11,0.0,-0.060742821072915,6.6029374018243825
mp-684876,Te40Rh31,"[Element Rh, Element Te]",2,Te40 Rh31,0.0,0.055181425211266004,8.225073171170068
mp-685048,Ag2Te,"[Element Ag, Element Te]",2,Ag14 Te7,0.0,-0.032259724999998005,7.442603141210368
mp-684990,Al2O3,"[Element Al, Element O]",2,Al12 O18,3.1085,-3.2317083046666673,2.038257906325992
mp-685090,Ga2O3,"[Element Ga, Element O]",2,Ga16 O24,0.0089,-2.05200047525,5.488993741037502
mp-684965,ZrSe,"[Element Se, Element Zr]",2,Zr16 Se16,0.0,-1.144776089843752,5.728484813878678
mp-685043,BBr,"[Element B, Element Br]",2,B18 Br18,1.2319,-0.6094234404166651,2.846840800319148
mp-685070,Zr19O40,"[Element O, Element Zr]",2,Zr19 O40,0.10260000000000001,-3.575846019152542,5.602303597243692
mp-685031,Tb8Se15,"[Element Se, Element Tb]",2,Tb48 Se90,0.08710000000000001,-1.861920999064763,7.13486072065055
mp-685105,SiO4,"[Element O, Element Si]",2,Si3 O12,0.38920000000000005,-1.160773658,1.9821639237898672
mp-685099,IrSe3,"[Element Ir, Element Se]",2,Ir7 Se21,0.0,-0.268489813379842,7.627059714286827
mp-685108,Cu9S5,"[Element Cu, Element S]",2,Cu9 S5,0.0,-0.12385038645089301,6.105923336744216
mp-695743,N2Cl,"[Element Cl, Element N]",2,N8 Cl4,0.0,0.32309650250000005,1.217925427604929
mp-696588,PH3,"[Element H, Element P]",2,P4 H12,0.0,0.016353474546130002,0.5707185863796971
mp-685157,IF7,"[Element F, Element I]",2,I2 F14,1.479499999999999,-1.4747942125,3.51539760906932
mp-685184,SiO2,"[Element O, Element Si]",2,Si30 O60,0.0,-2.867465222555556,2.270849683690675
mp-705563,Co29O40,"[Element Co, Element O]",2,Co29 O40,0.0,-1.181368133913043,5.358234126387961
mp-685153,Fe2O3,"[Element Fe, Element O]",2,Fe64 O96,0.9977,-1.481733684625,4.680793644563326
mp-689684,P2O5,"[Element O, Element P]",2,P8 O20,1.1173,-1.705508762755101,1.654881574132086
mp-705564,Co23O32,"[Element Co, Element O]",2,Co23 O32,0.0,-1.272912193454546,5.523838474278383
mp-705588,Fe8O9,"[Element Fe, Element O]",2,Fe16 O18,1.2314,-1.499313180588234,5.297060844147451
mp-706875,Fe21O23,"[Element Fe, Element O]",2,Fe21 O23,1.3538000000000001,-1.4804801530681821,5.389339168694853
mp-705551,Fe15O16,"[Element Fe, Element O]",2,Fe15 O16,1.188899999999999,-1.441563290645162,5.292031228843319
mp-705472,AsS,"[Element As, Element S]",2,As24 S24,1.0036,0.019768445989583,2.641474837701
mp-699208,Al2S3,"[Element Al, Element S]",2,Al12 S18,1.025,-0.7422107400208321,1.567220842430697
mp-705558,Fe7O9,"[Element Fe, Element O]",2,Fe21 O27,1.138699999999999,-1.404771015937501,4.103433687571809
mp-714851,BN,"[Element B, Element N]",2,B1 N1,2.8663,-1.314796825625002,2.498037488364745
mp-685107,Cu9Se5,"[Element Cu, Element Se]",2,Cu9 Se5,0.0,-0.074907410200893,6.526991394094158
mp-714859,Bi2O3,"[Element Bi, Element O]",2,Bi2 O3,0.0,0.761166042999998,8.34455812478178
mp-694910,Fe35O36,"[Element Fe, Element O]",2,Fe35 O36,0.21050000000000002,-0.714046052253521,5.594512857973422
mp-752826,Al2O3,"[Element Al, Element O]",2,Al10 O15,4.1714,-3.3327945424,3.496443884413578
mp-715517,VO2,"[Element O, Element V]",2,V16 O32,1.0155,-2.424621426458335,3.833929492665214
mp-715553,VO2,"[Element O, Element V]",2,V4 O8,0.0,-2.408770690000002,4.052214859521343
mp-760075,Ti19O30,"[Element O, Element Ti]",2,Ti19 O30,0.0,-3.330664134761904,4.479745392435078
mp-715598,V7O13,"[Element O, Element V]",2,V14 O26,0.5731,-2.476962810999999,4.392326269671944
mp-760747,Ti11O18,"[Element O, Element Ti]",2,Ti11 O18,0.0,-3.34912974091954,4.4100423076306825
mp-753921,Sb11S18,"[Element S, Element Sb]",2,Sb11 S18,0.0,-0.21243215322737002,4.200558050884681
mp-723985,Al2O3,"[Element Al, Element O]",2,Al16 O24,0.049199999999999,-0.8655523580000001,3.28386458497211
mp-722960,Cd7P10,"[Element Cd, Element P]",2,Cd14 P20,1.4513999999999991,-0.12072971255952102,4.773535174135996
mp-733790,SiO2,"[Element O, Element Si]",2,Si24 O48,5.5868,-3.266257846388887,2.254998357567127
mp-759920,Ti5O8,"[Element O, Element Ti]",2,Ti15 O24,0.0,-3.338724498205128,4.459327275743663
mp-716723,V9O17,"[Element O, Element V]",2,V18 O34,0.5838999999999991,-2.4704152125,4.41329694917235
mp-723352,Li2S,"[Element Li, Element S]",2,Li22 S11,1.9206999999999992,-1.421463145025251,1.6511715701994891
mp-726118,NF2,"[Element F, Element N]",2,N4 F8,0.0,-0.332311588333333,1.584936707599901
mp-770023,Ag2Hg3,"[Element Ag, Element Hg]",2,Ag20 Hg30,0.0,0.08231893853333001,12.350975691893154
mp-759754,Ti11O14,"[Element O, Element Ti]",2,Ti11 O14,0.0,-3.098233683466666,4.892722402020869
mp-758800,B84O11,"[Element B, Element O]",2,B84 O11,2.578,-0.633033537210526,2.549252372295334
mp-766354,Bi25O38,"[Element Bi, Element O]",2,Bi25 O38,0.44050000000000006,-1.5936451217460341,8.935600878996965
mp-723973,Sc2Se3,"[Element Sc, Element Se]",2,Sc4 Se6,0.0,3.781560182562499,4.43477250082972
mp-776135,Fe23O32,"[Element Fe, Element O]",2,Fe23 O32,0.67,-1.559012010545455,4.955894132261324
mp-767208,Sb17S27,"[Element S, Element Sb]",2,Sb17 S27,0.0,-0.225930847361506,4.288500794745145
mp-714932,V5O9,"[Element O, Element V]",2,V10 O18,0.7785000000000001,-2.487340240000001,4.414014992771106
mp-743752,Al4C3,"[Element Al, Element C]",2,Al4 C3,0.0,0.34706567571428604,2.967404241171015
mp-851576,B84O11,"[Element B, Element O]",2,B84 O11,0.0,2.587115256157894,2.54925259090646
mp-936248,Cu9Se8,"[Element Cu, Element Se]",2,Cu9 Se8,0.0,-0.028287302205883002,5.8101191944405
mp-777580,V5O12,"[Element O, Element V]",2,V5 O12,1.1948,-2.252112980588236,3.7657651042684472
mp-936302,B4C,"[Element B, Element C]",2,B56 C14,0.0,1.2429312621904751,2.42852660755558
mp-780521,Cr19O48,"[Element Cr, Element O]",2,Cr19 O48,0.3451,-1.681366412388059,3.265626625399472
mp-776583,V9O22,"[Element O, Element V]",2,V18 O44,0.9397000000000001,-2.2175787075806452,3.533727744018146
mp-995393,LiS4,"[Element Li, Element S]",2,Li2 S8,2.1989,-0.612184769666665,0.212291455515833
mp-936187,SiO4,"[Element O, Element Si]",2,Si3 O12,0.0,0.375499037333332,2.036289559663185
mp-988253,Al2S3,"[Element Al, Element S]",2,Al12 S18,0.0,0.860599957312499,1.637936136051554
mp-936295,Ta11O2,"[Element O, Element Ta]",2,Ta22 O4,0.0,8.992691854179487,15.14987691848759
mp-826025,W3O10,"[Element O, Element W]",2,W3 O10,0.0,-1.7680191323076921,6.284021831773189
mp-849080,VS2,"[Element S, Element V]",2,V1 S2,0.0,0.728974228333333,1.575633587393975
mp-983357,H3F2,"[Element F, Element H]",2,H6 F4,7.903799999999999,-1.3835593707499991,1.407697648737743
mp-777129,TiO2,"[Element O, Element Ti]",2,Ti18 O36,3.3487,-3.454227132777779,2.238874651374489
mp-776606,Fe2O3,"[Element Fe, Element O]",2,Fe16 O24,0.0,-1.584069799249999,5.142396889299271
mp-974002,OF3,"[Element F, Element O]",2,O2 F6,0.0,-0.15729891875000002,2.361597743424292
mp-850874,Cr19O48,"[Element Cr, Element O]",2,Cr19 O48,0.037799999999999,-1.66854123283582,3.254699595085839