material_id,formula_pretty,elements,nelements,composition,band_gap,formation_energy_per_atom,density
mp-1186622,PmP3,"[Element P, Element Pm]",2,Pm1 P3,0.0,-0.30864054285714204,5.180125863297762
mp-1186716,Pr3Hg,"[Element Hg, Element Pr]",2,Pr3 Hg1,0.0,-0.19438536729167302,8.342381631984038
mp-1186635,PmPr3,"[Element Pm, Element Pr]",2,Pm1 Pr3,0.0,0.030035771875002,6.541515994844379
mp-1186666,PmPu3,"[Element Pm, Element Pu]",2,Pm1 Pu3,0.0,0.22586518562499602,12.540933000442852
mp-1186711,Pr3Er,"[Element Er, Element Pr]",2,Pr3 Er1,0.0,0.043437935416665005,7.027736761838993
mp-1186725,Pr3Pd,"[Element Pd, Element Pr]",2,Pr3 Pd1,0.0,-0.113184706249999,7.593112710238543
mp-1186728,Pr3Sc,"[Element Pr, Element Sc]",2,Pr3 Sc1,0.0,0.069454790000001,5.868384810499193
mp-1186736,Pr3Zn,"[Element Pr, Element Zn]",2,Pr3 Zn1,0.0,-0.020592241249999,6.756406650982174
mp-1186563,PmEr3,"[Element Er, Element Pm]",2,Pm1 Er3,0.0,0.05770398562500301,8.539953308737271
mp-1186726,Pr3Sm,"[Element Pr, Element Sm]",2,Pr3 Sm1,0.0,0.030932278750000004,6.640289128102971
mp-1186691,Pr2Mg,"[Element Mg, Element Pr]",2,Pr2 Mg1,0.0,-0.027924946111109003,5.215481936864183
mp-1186717,Pr3Hf,"[Element Hf, Element Pr]",2,Pr3 Hf1,0.0,0.21449331875000102,7.863535128158102
mp-1186633,PmSm3,"[Element Pm, Element Sm]",2,Pm1 Sm3,0.0,0.020715573124999002,7.271680103005916
mp-1186699,Pr3Au,"[Element Au, Element Pr]",2,Pr3 Au1,0.0,-0.191963381249999,8.72777088005068
mp-1186718,Pr3Mg,"[Element Mg, Element Pr]",2,Pr3 Mg1,0.0,0.013207265000001,5.703001212193846
mp-1186671,PmY3,"[Element Pm, Element Y]",2,Pm1 Y3,0.0,0.073238253124998,5.099274783584939
mp-1186706,Pr3Cr,"[Element Cr, Element Pr]",2,Pr3 Cr1,0.0,0.373273111249999,6.390473932106174
mp-1186719,Pr3Ho,"[Element Ho, Element Pr]",2,Pr3 Ho1,0.0,0.038927682500002,6.970195851532554
mp-1186540,Pm3Sm,"[Element Pm, Element Sm]",2,Pm3 Sm1,0.0,0.020103564374998002,7.066278035740772
mp-1186545,Pm3Th,"[Element Pm, Element Th]",2,Pm3 Th1,0.0,0.07301467437499501,8.153976253296186
mp-1186642,PmSc3,"[Element Pm, Element Sc]",2,Pm1 Sc3,0.0,0.10225281937499901,4.280643542947758
mp-1186737,Pr3Th,"[Element Pr, Element Th]",2,Pr3 Th1,0.0,0.082704931249999,7.71539993975347
mp-1186536,Pm3Tm,"[Element Pm, Element Tm]",2,Pm3 Tm1,0.0,0.030997924375000003,7.523026984050602
mp-1186537,Pm3Sc,"[Element Pm, Element Sc]",2,Pm3 Sc1,0.0,0.058184070624999,6.267589125262205
mp-1186590,Pu3Sc,"[Element Pu, Element Sc]",2,Pu3 Sc1,0.0,0.224094928749991,13.99806371366403
mp-1186629,PmSe3,"[Element Pm, Element Se]",2,Pm1 Se3,0.0,-1.224600023242185,6.8057321638220465
mp-1186564,Pm3Gd,"[Element Gd, Element Pm]",2,Pm3 Gd1,0.0,0.044779511875006006,7.19679858564047
mp-1186746,PrBi3,"[Element Bi, Element Pr]",2,Pr1 Bi3,0.0,-0.488212136666668,10.168990461456781
mp-1186777,SrTb3,"[Element Sr, Element Tb]",2,Sr1 Tb3,0.0,0.200958795833333,6.61895227555418
mp-1186863,Rb3Nd,"[Element Nd, Element Rb]",2,Rb3 Nd1,0.0,0.6007683800000001,2.51467723879128
mp-1186847,PuPa3,"[Element Pa, Element Pu]",2,Pu1 Pa3,0.0,0.381048309999997,16.598854195154665
mp-1186867,Rb3Si,"[Element Rb, Element Si]",2,Rb3 Si1,0.0,0.388461026874999,2.602543232687917
mp-1186822,Pu3Th,"[Element Pu, Element Th]",2,Pu3 Th1,0.0,0.21545750999999302,15.399773740975764
mp-1186842,Rb3Cr,"[Element Cr, Element Rb]",2,Rb3 Cr1,0.0,0.708880636875,2.129370170351704
mp-1186870,Rb3Ta,"[Element Rb, Element Ta]",2,Rb3 Ta1,0.0,1.455523690041666,3.391651284926312
mp-1186874,Rb3Sm,"[Element Rb, Element Sm]",2,Rb3 Sm1,0.0,0.6186602281249991,2.566475822524247
mp-1186871,Rb3Rh,"[Element Rb, Element Rh]",2,Rb3 Rh1,0.0,0.646448371875,3.842022017341762
mp-1186790,Pr3Eu,"[Element Eu, Element Pr]",2,Pr3 Eu1,0.0,0.088654873750002,5.70528923522074
mp-1186856,Pu3Np,"[Element Np, Element Pu]",2,Pu3 Np1,0.0,0.20463586281249402,17.600351996589612
mp-1186879,Rb3Sr,"[Element Rb, Element Sr]",2,Rb3 Sr1,0.0,0.150086824374999,1.769823553917926
mp-1186969,RbNp3,"[Element Np, Element Rb]",2,Rb1 Np3,0.0,1.624576451562498,11.01736382278858
mp-1186875,Rb3Tb,"[Element Rb, Element Tb]",2,Rb3 Tb1,0.0,0.6398470377083331,2.603094081269086
mp-1186891,Rb3Yb,"[Element Rb, Element Yb]",2,Rb3 Yb1,0.0,0.681700455312501,2.655307920668284
mp-1186843,Pu3Ru,"[Element Pu, Element Ru]",2,Pu3 Ru1,0.0,0.45542918093750906,16.736208340463914
mp-1186803,PuS3,"[Element Pu, Element S]",2,Pu1 S3,0.0,-1.003098867812496,7.837421366155009
mp-1186904,RbEu3,"[Element Eu, Element Rb]",2,Rb1 Eu3,0.0,0.272345819374995,4.177468457036644
mp-1186925,SbAu3,"[Element Au, Element Sb]",2,Sb1 Au3,0.0,0.097950678750002,14.804922774390585
mp-1186826,Pu3Ta,"[Element Pu, Element Ta]",2,Pu3 Ta1,0.0,0.20570157999999503,17.0397741179429
mp-1186815,Pu3I,"[Element I, Element Pu]",2,Pu3 I1,0.0,0.41309536968750904,14.826284256755992
mp-1186910,RbCe3,"[Element Ce, Element Rb]",2,Rb1 Ce3,0.0,0.788399560625002,5.894188580975078
mp-1186972,Sc3Nb,"[Element Nb, Element Sc]",2,Sc3 Nb1,0.0,0.09973555375000101,4.269832546431914
mp-1186864,Rb3Pm,"[Element Pm, Element Rb]",2,Rb3 Pm1,0.0,0.6119894599999991,2.513568088900781
mp-1186883,Rb3Y,"[Element Rb, Element Y]",2,Rb3 Y1,0.0,0.6307890618750001,2.16213631775337
mp-1186827,Pu3Zr,"[Element Pu, Element Zr]",2,Pu3 Zr1,0.0,0.20314651249999802,14.386942560654322
mp-1186820,PuSb3,"[Element Pu, Element Sb]",2,Pu1 Sb3,0.0,-0.367506452187496,9.977511744560848
mp-1186889,Rb3Zr,"[Element Rb, Element Zr]",2,Rb3 Zr1,0.0,1.025195701874999,2.414204278281244
mp-1186919,Sb3W,"[Element Sb, Element W]",2,Sb3 W1,0.0,0.641387134999998,10.232214170705863
mp-1187215,TaAs3,"[Element As, Element Ta]",2,Ta1 As3,0.0,0.24907287316666002,9.460041341378487
mp-1187080,Sn3Te,"[Element Sn, Element Te]",2,Sn3 Te1,0.0,0.07463183000000101,6.8759384448927605
mp-1187045,Sn3Mo,"[Element Mo, Element Sn]",2,Sn3 Mo1,0.0,0.5399202562500031,8.37551077927053
mp-1187141,Sr3Ta,"[Element Sr, Element Ta]",2,Sr3 Ta1,0.0,0.903847992499997,4.75656080500282
mp-1187030,Sn3Ge,"[Element Ge, Element Sn]",2,Sn3 Ge1,0.0,0.163537064999999,6.884950769614303
mp-1187114,Sr3Cr,"[Element Cr, Element Sr]",2,Sr3 Cr1,0.0,0.5045726824999991,3.087711702464102
mp-1187236,SrPa3,"[Element Pa, Element Sr]",2,Sr1 Pa3,0.0,0.6304628558333291,11.916018465216197
mp-1187010,Sm3Cd,"[Element Cd, Element Sm]",2,Sm3 Cd1,0.0,-0.081155753749999,7.803441249473599
mp-1186989,ScOs3,"[Element Os, Element Sc]",2,Sc1 Os3,0.0,0.10434532625000101,16.458355511408694
mp-1186990,ScPb3,"[Element Pb, Element Sc]",2,Sc1 Pb3,0.0,-0.155656364791667,9.743168062086072
mp-1187057,Th3Rh,"[Element Rh, Element Th]",2,Th3 Rh1,0.0,-0.079622442083326,12.258577388757539
mp-1187100,Sr2Mg,"[Element Mg, Element Sr]",2,Sr2 Mg1,0.0,0.003382581666665,2.547447032169943
mp-1187142,Sr3Ti,"[Element Sr, Element Ti]",2,Sr3 Ti1,0.0,0.522095526666666,3.080557278603197
mp-1187148,Sr3Zr,"[Element Sr, Element Zr]",2,Sr3 Zr1,0.0,0.500507755000001,3.479386570554028
mp-1187169,SrCa3,"[Element Ca, Element Sr]",2,Sr1 Ca3,0.0,0.030013997499997003,1.854670763638887
mp-1187004,SiGe3,"[Element Ge, Element Si]",2,Si1 Ge3,0.0,0.42112811375000003,5.5020216385969825
mp-1187032,Sn3B,"[Element B, Element Sn]",2,Sn3 B1,0.0,0.921080893958333,6.5050115199883
mp-1187149,Sr3Sc,"[Element Sc, Element Sr]",2,Sr3 Sc1,0.0,0.29456525374999903,2.854604672826996
mp-1187177,SrF3,"[Element F, Element Sr]",2,Sr1 F3,0.0,-3.024883069999999,4.658518741668058
mp-1187223,Ta3Pd,"[Element Pd, Element Ta]",2,Ta3 Pd1,0.0,-0.037568288083335004,15.311677656359509
mp-1187230,SrSm3,"[Element Sm, Element Sr]",2,Sr1 Sm3,0.0,0.164101882083336,5.992663746213463
mp-1187239,SrGd3,"[Element Gd, Element Sr]",2,Sr1 Gd3,0.0,0.170339355833334,6.387325742214092
mp-1187007,SiPb3,"[Element Pb, Element Si]",2,Si1 Pb3,0.0,0.33526739250000004,9.53273092789357
mp-1187110,Sr3Ca,"[Element Ca, Element Sr]",2,Sr3 Ca1,0.0,0.044507889999998,2.357246104372858
mp-1187084,SmPu3,"[Element Pu, Element Sm]",2,Sm1 Pu3,0.0,0.250900613750005,13.88755027528564
mp-1187229,SrLa3,"[Element La, Element Sr]",2,Sr1 La3,0.0,0.139018337083332,5.191246874032143
mp-1187019,Se3Br,"[Element Br, Element Se]",2,Se3 Br1,0.0,-0.207460148007812,4.289279997495176
mp-1187054,Th3Mg,"[Element Mg, Element Th]",2,Th3 Mg1,0.0,0.06629597875000201,9.771018681562564
mp-1187156,Sr3Th,"[Element Sr, Element Th]",2,Sr3 Th1,0.0,0.404806589999999,4.466594440209873
mp-1187123,Sr3Nb,"[Element Nb, Element Sr]",2,Sr3 Nb1,0.0,0.7364411324999971,3.702162154911184
mp-1187227,Ta3Cu,"[Element Cu, Element Ta]",2,Ta3 Cu1,0.0,0.164942817499998,14.858201533016238
mp-1187446,ThTi3,"[Element Th, Element Ti]",2,Th1 Ti3,0.0,0.156022665000001,7.705714952935376
mp-1187316,Tb3Sc,"[Element Sc, Element Tb]",2,Tb3 Sc1,0.0,0.064053596249998,7.175201651891135
mp-1187268,SmGd3,"[Element Gd, Element Sm]",2,Sm1 Gd3,0.0,0.100530085000002,7.76816289353296
mp-1187325,Tb3Pb,"[Element Pb, Element Tb]",2,Tb3 Pb1,0.0,-0.262889177499998,9.64052644274972
mp-1187354,Tb3Ce,"[Element Ce, Element Tb]",2,Tb3 Ce1,0.0,0.085083598749999,8.278877229156985
mp-1187295,Tb3Nd,"[Element Nd, Element Tb]",2,Tb3 Nd1,0.0,0.032453043124998006,7.8407936373505525
mp-1187278,Tb3Dy,"[Element Dy, Element Tb]",2,Tb3 Dy1,0.0,0.033101361249997005,8.314694245385647
mp-1187408,Th3Cl,"[Element Cl, Element Th]",2,Th3 Cl1,0.0,-0.016214357499997,10.310642615995095
mp-1187309,Tb3Te,"[Element Tb, Element Te]",2,Tb3 Te1,0.0,-0.5492055075000011,8.74029017216001
mp-1187405,Th3Cd,"[Element Cd, Element Th]",2,Th3 Cd1,0.0,-0.021079927499989003,11.103919838073036
mp-1187331,TbBi3,"[Element Bi, Element Tb]",2,Tb1 Bi3,0.0,-0.46625936624999303,10.774437138634775
mp-1187300,Tb3Pm,"[Element Pm, Element Tb]",2,Tb3 Pm1,0.0,0.030702053125001003,7.902922278247743
mp-1187324,Tb3Th,"[Element Tb, Element Th]",2,Tb3 Th1,0.0,0.047821665000000006,9.124832030533176
mp-1187386,TbNp3,"[Element Np, Element Tb]",2,Tb1 Np3,0.0,0.7001452784375031,14.914542098087521
mp-1187396,Tc3Mo,"[Element Mo, Element Tc]",2,Tc3 Mo1,0.0,0.11901754375000001,10.788339384903995
mp-1187313,Tb3Tm,"[Element Tb, Element Tm]",2,Tb3 Tm1,0.0,0.037836912499997,8.503323682741105
mp-1187255,TaP3,"[Element P, Element Ta]",2,Ta1 P3,0.0,0.19675017575595502,7.742927724249941
mp-1187350,TbHo3,"[Element Ho, Element Tb]",2,Tb1 Ho3,0.0,0.042575328749997005,8.676417443619496
mp-1187406,Th3Zn,"[Element Th, Element Zn]",2,Th3 Zn1,0.0,0.002652357500011,11.018105228880508
mp-1187414,Th3W,"[Element Th, Element W]",2,Th3 W1,0.0,0.450886557499998,13.513431813278153
mp-1187256,TaTi3,"[Element Ta, Element Ti]",2,Ta1 Ti3,0.0,0.097485679999998,7.6751234962098795
mp-1187294,Tb3Ho,"[Element Ho, Element Tb]",2,Tb3 Ho1,0.0,0.034933166249999,8.38052207803824
mp-1187288,SrEu3,"[Element Eu, Element Sr]",2,Sr1 Eu3,0.0,0.07616713124999501,4.777299466932747
mp-1187289,Sr3Eu,"[Element Eu, Element Sr]",2,Sr3 Eu1,0.0,0.068457763749997,3.1223817094073
mp-1187311,Tb3Sm,"[Element Sm, Element Tb]",2,Tb3 Sm1,0.0,0.029870829999996,8.012552560899628
mp-1187322,Tb3Y,"[Element Tb, Element Y]",2,Tb3 Y1,0.0,0.047192294999998004,7.265103448574353
mp-1187275,Tb3Bi,"[Element Bi, Element Tb]",2,Tb3 Bi1,0.0,-0.43931370291666305,9.55377826261383
mp-1187301,Tb3Pr,"[Element Pr, Element Tb]",2,Tb3 Pr1,0.0,0.038563687083332,7.739934972988301
mp-1187323,Tb3Zr,"[Element Tb, Element Zr]",2,Tb3 Zr1,0.0,0.10235226999999701,8.066164652849736
mp-1187360,TbCe3,"[Element Ce, Element Tb]",2,Tb1 Ce3,0.0,0.09544303875000101,8.593012476873543
mp-1187410,Th3Hg,"[Element Hg, Element Th]",2,Th3 Hg1,0.0,-0.072799209374991,12.480647078353964
mp-1187528,TiSb3,"[Element Sb, Element Ti]",2,Ti1 Sb3,0.0,0.102538877083336,7.160859636759457
mp-1187669,YbDy3,"[Element Dy, Element Yb]",2,Yb1 Dy3,0.0,0.0429061775,8.830392655774533
mp-1187457,ThSc3,"[Element Sc, Element Th]",2,Th1 Sc3,0.0,0.052675823749999004,5.695431684922591
mp-1187451,ThTc3,"[Element Tc, Element Th]",2,Th1 Tc3,0.0,0.26950396937500104,12.211520328396162
mp-1187450,TePb3,"[Element Pb, Element Te]",2,Te1 Pb3,0.0,0.05437760250000401,9.593015619860735
mp-1187475,Ti3Be,"[Element Be, Element Ti]",2,Ti3 Be1,0.0,-0.0005910737499990001,4.25945632754594
mp-1187647,Tm3Sn,"[Element Sn, Element Tm]",2,Tm3 Sn1,0.0,-0.37180211625000503,9.652865057676209
mp-1187652,TmRu3,"[Element Ru, Element Tm]",2,Tm1 Ru3,0.0,0.101204422499998,12.090460426416126
mp-1187734,V3Br,"[Element Br, Element V]",2,V3 Br1,0.0,0.46067159625000004,6.7364911897451805
mp-1187541,Ti3In,"[Element In, Element Ti]",2,Ti3 In1,0.0,-0.12011648166666601,5.877831742691308
mp-1187549,YbPm3,"[Element Pm, Element Yb]",2,Yb1 Pm3,0.0,0.026659120624998003,7.602554380017089
mp-1187675,YbHo3,"[Element Ho, Element Yb]",2,Yb1 Ho3,0.0,0.047820152500001004,9.03399368946157
mp-1187474,Ti3Zn,"[Element Ti, Element Zn]",2,Ti3 Zn1,0.0,-0.10633001749999901,5.370466920629294
mp-1187546,Tl3Cu,"[Element Cu, Element Tl]",2,Tl3 Cu1,0.0,0.289969380000002,10.780160570622735
mp-1187547,YbY3,"[Element Y, Element Yb]",2,Yb1 Y3,0.0,0.083879788749996,5.647404997128631
mp-1187719,V3Ag,"[Element Ag, Element V]",2,V3 Ag1,0.0,0.37245250083333303,7.3059798601575885
mp-1187637,YbF3,"[Element F, Element Yb]",2,Yb1 F3,0.0,-4.171719388749999,9.718432987827002
mp-1187544,Tl3S,"[Element S, Element Tl]",2,Tl3 S1,0.0,-0.22314765937500503,9.423225846097672
mp-1187668,U3Ge,"[Element Ge, Element U]",2,U3 Ge1,0.0,-0.12078516375000702,16.816683137247345
mp-1187550,Tl3Si,"[Element Si, Element Tl]",2,Tl3 Si1,0.0,0.355959932499999,9.704145537791367
mp-1187678,ThNp3,"[Element Np, Element Th]",2,Th1 Np3,0.0,0.582906928437495,16.58092365010885
mp-1187742,TlIn3,"[Element In, Element Tl]",2,Tl1 In3,0.0,0.028007442500001003,8.322658271437984
mp-1187554,Tl3Ge,"[Element Ge, Element Tl]",2,Tl3 Ge1,0.0,0.15306437125000302,10.081771383501042
mp-1187468,Tb3Eu,"[Element Eu, Element Tb]",2,Tb3 Eu1,0.0,0.07958243499999801,7.854624760359264
mp-1187748,UMn3,"[Element Mn, Element U]",2,U1 Mn3,0.0,0.142779734051725,12.31470392870607
mp-1187545,Tl3Ag,"[Element Ag, Element Tl]",2,Tl3 Ag1,0.0,0.10945109083333901,10.732235298827627
mp-1187512,TiAu3,"[Element Au, Element Ti]",2,Ti1 Au3,0.0,-0.31275068166666303,15.566781002463317
mp-1187555,Tl3Cd,"[Element Cd, Element Tl]",2,Tl3 Cd1,0.0,0.067323962499997,10.654548174936231
mp-1187551,Tl3Zn,"[Element Tl, Element Zn]",2,Tl3 Zn1,0.0,0.13277009249999502,10.046558305692958
mp-1187683,U3Hg,"[Element Hg, Element U]",2,U3 Hg1,0.0,0.44846873625000605,17.32720457332842
mp-1187648,Tm3Ge,"[Element Ge, Element Tm]",2,Tm3 Ge1,0.0,-0.290173783750005,9.584917287129343
mp-1187819,YBi3,"[Element Bi, Element Y]",2,Y1 Bi3,0.0,-0.45315349874999805,9.806026502927844
mp-1187758,WAu3,"[Element Au, Element W]",2,W1 Au3,0.0,0.5145121075000031,18.45631323777901
mp-1187805,Y3Sn,"[Element Sn, Element Y]",2,Y3 Sn1,0.0,-0.362388371249999,5.545837978541583
mp-1187881,Y3Pb,"[Element Pb, Element Y]",2,Y3 Pb1,0.0,-0.378389568055553,6.592293384239023
mp-1187829,Y3Th,"[Element Th, Element Y]",2,Y3 Th1,0.0,0.083534777499998,6.271490408820711
mp-1187816,YAg3,"[Element Ag, Element Y]",2,Y1 Ag3,0.0,-0.214797421249997,8.501170923346072
mp-1187903,Tm3Np,"[Element Np, Element Tm]",2,Tm3 Np1,0.0,0.363909365312494,10.618965082738477
mp-1187882,YU3,"[Element U, Element Y]",2,Y1 U3,0.0,0.5754322083333251,14.417194728532072
mp-1187981,Yb3Nb,"[Element Nb, Element Yb]",2,Yb3 Nb1,0.0,0.187480721249997,9.944499301355654
mp-1187951,ZnCo3,"[Element Co, Element Zn]",2,Zn1 Co3,0.0,0.059748572386364,8.8031677006385
mp-1187976,ZnSn3,"[Element Sn, Element Zn]",2,Zn1 Sn3,0.0,0.12325235624999901,6.86124719247777
mp-1187756,U3Zn,"[Element U, Element Zn]",2,U3 Zn1,0.0,0.207172512500005,16.501681469218692
mp-1187787,V3F,"[Element F, Element V]",2,V3 F1,0.0,0.599620701874997,4.134141944001067
mp-1187946,ZnAg3,"[Element Ag, Element Zn]",2,Zn1 Ag3,0.0,-0.0091386225,9.783331397335909
mp-1188028,ZrP3,"[Element P, Element Zr]",2,Zr1 P3,0.0,-0.240494783482142,4.750978834830825
mp-1187941,ZnSi3,"[Element Si, Element Zn]",2,Zn1 Si3,0.0,0.518562260000001,4.066329210619619
mp-1188016,Zr3Be,"[Element Be, Element Zr]",2,Zr3 Be1,0.0,0.07070107874999901,5.9512995406259535
mp-1187795,Y3P,"[Element P, Element Y]",2,Y3 P1,0.0,-0.42593854032737904,4.897398011165119
mp-1188030,Zr3Cd,"[Element Cd, Element Zr]",2,Zr3 Cd1,0.0,-0.08176615625000101,7.233748881222262
mp-1187786,Y3Ge,"[Element Ge, Element Y]",2,Y3 Ge1,0.0,-0.35466595305555804,5.282077170659041
mp-1187973,Yb3Mg,"[Element Mg, Element Yb]",2,Yb3 Mg1,0.0,0.043347369999995,8.040996021349207
mp-1187966,Yb3Hf,"[Element Hf, Element Yb]",2,Yb3 Hf1,0.0,0.13432588874999102,10.615681936198689
mp-1188041,Zr3Mn,"[Element Mn, Element Zr]",2,Zr3 Mn1,0.0,0.139916590517239,6.488144894458336
mp-1187849,YHo3,"[Element Ho, Element Y]",2,Y1 Ho3,0.0,0.060743686250003,7.680388663799777
mp-1188054,Zr3Rh,"[Element Rh, Element Zr]",2,Zr3 Rh1,0.0,-0.27345104750000004,7.663997195420059
mp-1187753,V3Cu,"[Element Cu, Element V]",2,V3 Cu1,0.0,0.138322794999998,6.9349242113910075
mp-1188048,Zr3N,"[Element N, Element Zr]",2,Zr3 N1,0.0,0.49219902281250305,6.529432315423566
mp-1187893,YNp3,"[Element Np, Element Y]",2,Y1 Np3,0.0,0.7013621117708341,13.645099815168937
mp-1187844,Zr3Pb,"[Element Pb, Element Zr]",2,Zr3 Pb1,0.0,-0.21319794624999802,8.618326732015781
mp-1187936,Zn3Si,"[Element Si, Element Zn]",2,Zn3 Si1,0.0,0.19656549749999902,6.102266232295959
mp-1188513,HoSi3,"[Element Ho, Element Si]",2,Ho4 Si12,0.0,-0.354873203624997,5.926936392358892
mp-1189496,Rb3Pd,"[Element Pd, Element Rb]",2,Rb12 Pd4,0.0,0.195788900624999,2.9046340706645353
mp-1196590,Lu11Ge10,"[Element Ge, Element Lu]",2,Lu22 Ge20,0.0,-0.8100386461111011,9.765332532155611
mp-1196703,Er11Sn10,"[Element Er, Element Sn]",2,Er22 Sn20,0.0,-0.7052012664285691,9.268136757343031
mp-1199158,Tm11Sn10,"[Element Sn, Element Tm]",2,Tm22 Sn20,0.0,-0.681152800000001,9.176739973145962
mp-1203572,Er11Ge10,"[Element Er, Element Ge]",2,Er22 Ge20,0.0,-0.8408550376190451,9.063616849446841
mp-1202367,Nd11Sn10,"[Element Nd, Element Sn]",2,Nd22 Sn20,0.0,-0.7597649158333311,7.374219028547498
mp-1201454,Sm11Sn10,"[Element Sm, Element Sn]",2,Sm22 Sn20,0.0,-0.7608718930952321,7.696946581457169
mp-1205346,CaSi3,"[Element Ca, Element Si]",2,Ca4 Si12,0.0,-0.194750173750001,2.763127724915327
mp-1188068,ZrNp3,"[Element Np, Element Zr]",2,Zr1 Np3,0.0,0.542279715937496,15.193349979721157
mp-1196953,Tb11Ge10,"[Element Ge, Element Tb]",2,Tb22 Ge20,0.0,-0.971811689047621,8.222948139674184
mp-1199133,Y11Sn10,"[Element Sn, Element Y]",2,Y22 Sn20,0.014699999999999,-0.7515072278571291,6.207014166001599
mp-1205768,ZrPt8,"[Element Pt, Element Zr]",2,Zr1 Pt8,0.0,-0.5586446272222231,19.344344509598002
mp-1189414,YbSi3,"[Element Si, Element Yb]",2,Yb4 Si12,0.0,-0.29414381249999905,6.33973057173672
mp-1206229,Sm2Bi,"[Element Bi, Element Sm]",2,Sm4 Bi2,0.0,-0.795304560000005,9.074459371858438
mp-1189560,YSi3,"[Element Si, Element Y]",2,Y4 Si12,0.0,-0.34030881749999803,4.05102560445239
mp-1190013,TiNi,"[Element Ni, Element Ti]",2,Ti8 Ni8,0.0,-0.36128377041666604,6.60301693035981
mp-1196279,Sc11Ge10,"[Element Ge, Element Sc]",2,Sc22 Ge20,0.0,-0.8837179633333321,4.9958809314035335
mp-1201140,Tb11Sn10,"[Element Sn, Element Tb]",2,Tb22 Sn20,0.0,-0.744200812777776,8.607169626078864
mp-1203550,Tm11Ge10,"[Element Ge, Element Tm]",2,Tm22 Ge20,0.0,-0.8299452085714311,9.267022659762487
mp-1203269,Ho11Sn10,"[Element Ho, Element Sn]",2,Ho22 Sn20,0.014999999999999002,-0.712722199047615,9.047769749578851
mp-12049,Nd2Sb,"[Element Nd, Element Sb]",2,Nd4 Sb2,0.0,-1.013258746666669,7.325438900741387
mp-1205360,CaGe3,"[Element Ca, Element Ge]",2,Ca4 Ge12,0.0,-0.32559489750000004,5.009990508273799
mp-1207826,Y11Ge10,"[Element Ge, Element Y]",2,Y22 Ge20,0.0,-0.9706742917857121,5.704044867349658
mp-1206707,CePb2,"[Element Ce, Element Pb]",2,Ce1 Pb2,0.0,-0.077964696666663,10.199217898062972
mp-1206408,K4C,"[Element C, Element K]",2,K4 C1,0.0,0.946748569206252,1.21062372397602
mp-1222037,MgIn2,"[Element In, Element Mg]",2,Mg1 In2,0.0,-0.029136012777776003,5.8638983301578875
mp-1206780,Ti2Sb,"[Element Sb, Element Ti]",2,Ti4 Sb2,0.0,-0.526163157777778,6.377099682958043
mp-1207242,PrPb2,"[Element Pb, Element Pr]",2,Pr1 Pb2,0.0,-0.252049237222204,9.310412942912928