material_id,formula_pretty,elements,nelements,composition,band_gap,formation_energy_per_atom,density
mp-554004,ZnS,"[Element S, Element Zn]",2,Zn28 S28,2.0279,-0.961685718191964,4.133526938798199
mp-1358572,CrO2,"[Element Cr, Element O]",2,Cr12 O24,0.0,-1.8625959530555551,3.805360136426531
mp-554503,ZnS,"[Element S, Element Zn]",2,Zn28 S28,2.0191,-0.962185640870535,4.133865216379459
mp-1359814,SnO2,"[Element O, Element Sn]",2,Sn12 O24,0.0,-1.850922564166666,5.368129304949672
mp-554608,ZnS,"[Element S, Element Zn]",2,Zn26 S26,2.015,-0.9624897537139431,4.136003121754603
mp-553880,ZnS,"[Element S, Element Zn]",2,Zn26 S26,2.0298,-0.9622840304447121,4.136631015977919
mp-554253,ZnS,"[Element S, Element Zn]",2,Zn26 S26,1.9769,-0.9619794758293271,4.135127728855325
mp-1227622,Be46Ru7,"[Element Be, Element Ru]",2,Be46 Ru7,0.0,-0.094057953018868,3.748695339751738
mp-553916,ZnS,"[Element S, Element Zn]",2,Zn24 S24,2.0251,-0.9624453570312491,4.140470222531364
mp-1232344,ReS2,"[Element Re, Element S]",2,Re1 S2,0.0,-0.28051586250000005,7.6143303417608355
mp-1228684,B2Pt3,"[Element B, Element Pt]",2,B2 Pt3,0.0,-0.126045979666662,15.748413437816392
mp-1355579,FeO2,"[Element Fe, Element O]",2,Fe12 O24,0.0,-1.142629018333333,3.961715473814272
mp-554115,ZnS,"[Element S, Element Zn]",2,Zn24 S24,2.0169,-0.9623385472395831,4.134202143606421
mp-1354141,NiO2,"[Element Ni, Element O]",2,Ni12 O24,0.0,-0.6068727150000001,4.7487227316953255
mp-554820,ZnS,"[Element S, Element Zn]",2,Zn28 S28,2.0195,-0.962698349620534,4.141139565305906
mp-554999,ZnS,"[Element S, Element Zn]",2,Zn24 S24,2.0197,-0.9622275199479161,4.139692758850113
mp-555628,ZnS,"[Element S, Element Zn]",2,Zn24 S24,2.036,-0.9620438711979161,4.138630196504454
mp-555664,ZnS,"[Element S, Element Zn]",2,Zn24 S24,2.0194,-0.962668218281249,4.141497669370025
mp-555583,ZnS,"[Element S, Element Zn]",2,Zn24 S24,2.03,-0.962250998072916,4.135708550404982
mp-554713,ZnS,"[Element S, Element Zn]",2,Zn24 S24,2.034,-0.962012003489583,4.1399412200845
mp-555079,ZnS,"[Element S, Element Zn]",2,Zn28 S28,2.018799999999999,-0.9626829801562491,4.136732567085231
mp-555151,ZnS,"[Element S, Element Zn]",2,Zn28 S28,2.0233,-0.962192134441963,4.136194083695638
mp-554889,ZnS,"[Element S, Element Zn]",2,Zn24 S24,2.0385,-0.962055389739583,4.135282873167822
mp-555594,ZnS,"[Element S, Element Zn]",2,Zn24 S24,2.0252,-0.962455199739583,4.140512733484914
mp-554961,ZnS,"[Element S, Element Zn]",2,Zn28 S28,2.018,-0.9621898253348211,4.136811019794761
mp-554986,ZnS,"[Element S, Element Zn]",2,Zn34 S34,2.0291,-0.9617009913222161,3.997283655978585
mp-555214,ZnS,"[Element S, Element Zn]",2,Zn26 S26,1.596,-0.948980154675481,4.149025430112542
mp-554829,ZnS,"[Element S, Element Zn]",2,Zn24 S24,2.0216,-0.9624573849479161,4.13646643797577
mp-555311,ZnS,"[Element S, Element Zn]",2,Zn26 S26,2.0305,-0.96197231390625,4.134737859378411
mp-555381,ZnS,"[Element S, Element Zn]",2,Zn24 S24,2.0142,-0.9624543522395831,4.140940447901398
mp-555543,ZnS,"[Element S, Element Zn]",2,Zn24 S24,2.025,-0.962111316614583,4.14039751074205
mp-556207,ZnS,"[Element S, Element Zn]",2,Zn20 S20,2.0276,-0.96210754340625,4.139649203780353
mp-556363,ZnS,"[Element S, Element Zn]",2,Zn18 S18,2.0282,-0.9622874519618051,4.139907508367396
mp-555779,ZnS,"[Element S, Element Zn]",2,Zn16 S16,2.0195,-0.9625231364062501,4.139707839129861
mp-556000,ZnS,"[Element S, Element Zn]",2,Zn22 S22,2.0254,-0.962087775724432,4.136395195341013
mp-556395,ZnS,"[Element S, Element Zn]",2,Zn8 S8,1.9563000000000001,-0.9621301714062511,4.144676775661342
mp-556392,ZnS,"[Element S, Element Zn]",2,Zn14 S14,2.0369,-0.961798177477677,4.135502731378398
mp-556280,ZnS,"[Element S, Element Zn]",2,Zn20 S20,2.0238,-0.9623396429062511,4.140281995133783
mp-555666,ZnS,"[Element S, Element Zn]",2,Zn32 S32,1.858099999999999,-0.9624169718750011,4.139642475017291
mp-556543,ZnS,"[Element S, Element Zn]",2,Zn22 S22,2.0163,-0.9625815027698871,4.136662865877198
mp-555773,ZnS,"[Element S, Element Zn]",2,Zn18 S18,2.0281,-0.9623161397395831,4.139493060245037
mp-556161,ZnS,"[Element S, Element Zn]",2,Zn14 S14,1.4296,-0.9621339131919641,4.139330346759543
mp-556716,ZnS,"[Element S, Element Zn]",2,Zn14 S14,1.213299999999999,-0.9617246374776781,4.138551334485021
mp-555782,ZnS,"[Element S, Element Zn]",2,Zn20 S20,1.9917,-0.9623346909062501,4.140591107212218
mp-556152,ZnS,"[Element S, Element Zn]",2,Zn18 S18,2.0263,-0.9619858852951401,4.138939648976525
mp-556448,ZnS,"[Element S, Element Zn]",2,Zn18 S18,2.015799999999999,-0.9625760230729171,4.139987357116019
mp-556005,ZnS,"[Element S, Element Zn]",2,Zn8 S8,2.0389,-0.9615223076562511,4.142794692184443
mp-556155,ZnS,"[Element S, Element Zn]",2,Zn20 S20,2.0223,-0.9623498061562501,4.140570387997359
mp-556485,ZnS,"[Element S, Element Zn]",2,Zn12 S12,0.0,-0.75210467843006,3.920794326389074
mp-556989,ZnS,"[Element S, Element Zn]",2,Zn18 S18,2.0305,-0.9617217564062501,4.13239396011343
mp-557308,ZnS,"[Element S, Element Zn]",2,Zn10 S10,2.0245,-0.9623428774062501,4.138459180418014
mp-557026,ZnS,"[Element S, Element Zn]",2,Zn18 S18,2.023,-0.9622953394618061,4.140165637770164
mp-557175,ZnS,"[Element S, Element Zn]",2,Zn18 S18,2.027199999999999,-0.9623006405729161,4.14042797751988
mp-556784,ZnS,"[Element S, Element Zn]",2,Zn22 S22,1.992,-0.9626265420880671,4.140502680206261
mp-556950,ZnS,"[Element S, Element Zn]",2,Zn16 S16,2.032299999999999,-0.9622242404687511,4.140263513368803
mp-557418,ZnS,"[Element S, Element Zn]",2,Zn20 S20,2.018199999999999,-0.962115688156249,4.140206217097838
mp-556775,ZnS,"[Element S, Element Zn]",2,Zn16 S16,2.0399,-0.9619322998437501,4.138664387036938
mp-556732,ZnS,"[Element S, Element Zn]",2,Zn20 S20,2.0239,-0.962344216656249,4.141060971932565
mp-556815,ZnS,"[Element S, Element Zn]",2,Zn14 S14,2.0421,-0.9617357624776771,4.138228481131274
mp-567178,PbI2,"[Element I, Element Pb]",2,Pb3 I6,2.3872,-0.9210123294444361,5.638153647958276
mp-557009,ZnS,"[Element S, Element Zn]",2,Zn20 S20,2.0302,-0.9621058091562501,4.139898632655899
mp-557054,ZnS,"[Element S, Element Zn]",2,Zn14 S14,1.689499999999999,-0.96143963033482,4.132678023438001
mp-557058,ZnS,"[Element S, Element Zn]",2,Zn12 S12,0.0,-0.7549285563467261,3.9315905280839822
mp-557346,ZnS,"[Element S, Element Zn]",2,Zn18 S18,2.0258,-0.9622990758506941,4.139977132245565
mp-557062,ZnS,"[Element S, Element Zn]",2,Zn20 S20,2.0301,-0.9621078659062501,4.135878717029721
mp-568656,SiC,"[Element C, Element Si]",2,Si10 C10,2.0052,-0.3058404775,3.227626988394056
mp-568696,SiC,"[Element C, Element Si]",2,Si14 C14,1.8139,-0.30592571285714304,3.22746872370534
mp-569510,CdI2,"[Element Cd, Element I]",2,Cd16 I32,2.354899999999999,-0.826238529999999,4.9551948768682745
mp-568619,SiC,"[Element C, Element Si]",2,Si5 C5,1.750999999999999,-0.30492841349999905,3.227469634095106
mp-567199,PbI2,"[Element I, Element Pb]",2,Pb5 I10,2.3538,-0.9210506370000021,5.627582649349983
mp-569611,CdI2,"[Element Cd, Element I]",2,Cd17 I34,2.3628,-0.826027076470587,4.99701619298406
mp-568735,SiC,"[Element C, Element Si]",2,Si18 C18,1.997999999999999,-0.30579532083333305,3.227701527197547
mp-569666,CdI2,"[Element Cd, Element I]",2,Cd17 I34,2.3893,-0.8266019866666651,4.868490956869174
mp-569964,CdI2,"[Element Cd, Element I]",2,Cd8 I16,2.3769,-0.826770510249999,5.330054439351192
mp-567246,PbI2,"[Element I, Element Pb]",2,Pb7 I14,2.4016,-0.92100180119047,5.6683762478102135
mp-570019,CdI2,"[Element Cd, Element I]",2,Cd8 I16,2.354899999999999,-0.8270711298333361,5.296990658899907
mp-569468,CdI2,"[Element Cd, Element I]",2,Cd16 I32,2.4139,-0.8266699645833321,4.746761910370784
mp-570082,CdI2,"[Element Cd, Element I]",2,Cd8 I16,2.3629000000000002,-0.8268092544166671,5.337874777325061
mp-569722,CdI2,"[Element Cd, Element I]",2,Cd17 I34,2.3909000000000002,-0.8264900166666651,4.907791381486458
mp-570314,CdI2,"[Element Cd, Element I]",2,Cd9 I18,2.3602,-0.826801339555556,5.348976652265136
mp-570165,CdI2,"[Element Cd, Element I]",2,Cd9 I18,2.3983,-0.826880177703701,5.331506748050597
mp-570127,CdI2,"[Element Cd, Element I]",2,Cd8 I16,2.3392,-0.8268585152500031,5.348684959014408
mp-570671,CdI2,"[Element Cd, Element I]",2,Cd6 I12,2.3821,-0.8270495251111091,5.281504897831505
mp-570136,CuI,"[Element Cu, Element I]",2,Cu6 I6,1.4615,-0.34307305999999904,5.741435282416863
mp-570472,CdI2,"[Element Cd, Element I]",2,Cd5 I10,2.2334,-0.8269430979999991,5.319802810164144
mp-570448,CdI2,"[Element Cd, Element I]",2,Cd13 I26,2.395,-0.8266081615384601,4.855967352728044
mp-570492,CdI2,"[Element Cd, Element I]",2,Cd13 I26,2.4082,-0.826621848615384,5.37700922978747
mp-570437,CdI2,"[Element Cd, Element I]",2,Cd3 I6,2.3382,-0.827083558444443,5.339921249967611
mp-570511,CdI2,"[Element Cd, Element I]",2,Cd5 I10,2.371099999999999,-0.826968475999997,5.245182159815592
mp-570263,CdI2,"[Element Cd, Element I]",2,Cd9 I18,2.3789,-0.826474568148147,4.898789543620114
mp-570410,CdI2,"[Element Cd, Element I]",2,Cd9 I18,2.3623,-0.8269205680740741,5.262630278449179
mp-570552,CdI2,"[Element Cd, Element I]",2,Cd13 I26,2.4065,-0.8267243815384601,5.24446870494989
mp-570610,CdI2,"[Element Cd, Element I]",2,Cd13 I26,2.411299999999999,-0.826836906564101,5.313819179422151
mp-570559,CdI2,"[Element Cd, Element I]",2,Cd5 I10,2.3728,-0.826734789999999,5.242281647419127
mp-570613,CdI2,"[Element Cd, Element I]",2,Cd6 I12,1.9111,-0.826916226222221,5.273274402674265
mp-571037,CdI2,"[Element Cd, Element I]",2,Cd7 I14,2.3506,-0.826876864,5.344161664305839
mp-571197,CdI2,"[Element Cd, Element I]",2,Cd7 I14,2.3794,-0.8270690301904751,5.288994647832472
mp-571091,CdI2,"[Element Cd, Element I]",2,Cd7 I14,2.3649,-0.8270232759047601,5.291330880931759
mp-570695,CdI2,"[Element Cd, Element I]",2,Cd6 I12,2.3518,-0.8270151089999971,5.291405577808386
mp-570791,SiC,"[Element C, Element Si]",2,Si19 C19,1.9695,-0.30582562723684303,3.227713676768763
mp-570939,CdI2,"[Element Cd, Element I]",2,Cd6 I12,2.400499999999999,-0.8270164306666631,5.276886296818307
mp-570882,CdI2,"[Element Cd, Element I]",2,Cd6 I12,2.3696,-0.8266755195555521,5.371410217263356
mp-570985,SiC,"[Element C, Element Si]",2,Si27 C27,1.942400000000001,-0.305895955833334,3.227625683593629
mp-570781,CdI2,"[Element Cd, Element I]",2,Cd6 I12,1.964099999999999,-0.8270553967777761,5.323332803366346
mp-571136,CdI2,"[Element Cd, Element I]",2,Cd7 I14,2.3644,-0.8268345578095221,5.332813464657999
mp-571568,CdI2,"[Element Cd, Element I]",2,Cd8 I16,2.3543,-0.826755576083332,5.333580747641738
mp-571514,CdI2,"[Element Cd, Element I]",2,Cd8 I16,2.36,-0.826828170666666,5.334026150056104
mp-571539,CdI2,"[Element Cd, Element I]",2,Cd8 I16,2.3609,-0.8270167448333331,5.300379747451091
mp-571579,CdI2,"[Element Cd, Element I]",2,Cd10 I20,2.4236,-0.8267348349999971,5.344295872931892
mp-571569,CdI2,"[Element Cd, Element I]",2,Cd9 I18,2.3862,-0.8267193006666671,5.343467464330681
mp-571286,SiC,"[Element C, Element Si]",2,Si36 C36,1.837100000000001,-0.30566305353508605,3.23531581241525
mp-571298,SiC,"[Element C, Element Si]",2,Si39 C39,1.6356000000000002,-0.30551445693252405,3.235211431150285
mp-571225,CdI2,"[Element Cd, Element I]",2,Cd7 I14,2.4018,-0.826807565904762,5.344145169521602
mp-571535,CdI2,"[Element Cd, Element I]",2,Cd8 I16,2.3615,-0.8268281540000011,5.338659696359294
mp-571516,CdI2,"[Element Cd, Element I]",2,Cd16 I32,2.464,-0.8265835087499991,4.8929575752431544
mp-571538,CdI2,"[Element Cd, Element I]",2,Cd10 I20,2.3738,-0.826942592666662,5.341084425257993
mp-571592,CdI2,"[Element Cd, Element I]",2,Cd8 I16,2.386,-0.826665667333333,5.333483770627593
mp-571519,CdI2,"[Element Cd, Element I]",2,Cd7 I14,2.3705,-0.8267933339999971,5.248139602763172
mp-571583,CdI2,"[Element Cd, Element I]",2,Cd10 I20,2.3619,-0.826762379999997,5.343191348706409
mp-571567,CdI2,"[Element Cd, Element I]",2,Cd8 I16,2.4505,-0.8268079102500001,5.332092797337873
mp-571578,CdI2,"[Element Cd, Element I]",2,Cd10 I20,2.3799,-0.8269150433333291,5.349514565454821
mp-571559,CdI2,"[Element Cd, Element I]",2,Cd10 I20,2.3795,-0.8268939496666641,5.330353755200981
mp-582034,SiC,"[Element C, Element Si]",2,Si21 C21,1.689099999999999,-0.30591801821428405,3.227481014209514
mp-571615,CdI2,"[Element Cd, Element I]",2,Cd10 I20,2.3739,-0.8267103706666631,5.336959202568102
mp-571603,CdI2,"[Element Cd, Element I]",2,Cd12 I24,2.3755,-0.8267888776111101,5.35070674452323
mp-571595,CdI2,"[Element Cd, Element I]",2,Cd10 I20,2.401399999999999,-0.8266054779999981,5.36427316597202
mp-571593,CdI2,"[Element Cd, Element I]",2,Cd12 I24,2.3733,-0.8268508442777761,5.245860200352309
mp-581405,ZnS,"[Element S, Element Zn]",2,Zn40 S40,1.8885,-0.9619335808883931,3.998964907527228
mp-571613,CdI2,"[Element Cd, Element I]",2,Cd12 I24,2.3729,-0.826246772777777,4.962275631233988
mp-580202,PbI2,"[Element I, Element Pb]",2,Pb10 I20,2.3943,-0.9199347426666651,5.401131583852914
mp-571616,CdI2,"[Element Cd, Element I]",2,Cd10 I20,2.4407,-0.826817147666663,5.307206584491529
mp-571605,CdI2,"[Element Cd, Element I]",2,Cd10 I20,2.3728,-0.8267139706666651,5.338635403136643
mp-582680,ZnS,"[Element S, Element Zn]",2,Zn36 S36,1.9845000000000002,-0.961858802041169,4.001714459107337
mp-571635,CdI2,"[Element Cd, Element I]",2,Cd12 I24,2.4398,-0.826588534444444,4.630356554838132
mp-571607,CdI2,"[Element Cd, Element I]",2,Cd12 I24,2.3552,-0.8256310952777771,5.040232135531689
mp-571668,CdI2,"[Element Cd, Element I]",2,Cd12 I24,2.3803,-0.825980666944444,5.002083448127093
mp-581425,ZnS,"[Element S, Element Zn]",2,Zn36 S36,2.018399999999999,-0.962029152457838,4.000432561751981
mp-571654,CdI2,"[Element Cd, Element I]",2,Cd12 I24,2.3724,-0.826743302055552,5.349472922210512
mp-582042,CdI2,"[Element Cd, Element I]",2,Cd15 I30,2.407499999999999,-0.8267047793333321,4.813287941037054
mp-571667,CdI2,"[Element Cd, Element I]",2,Cd13 I26,2.4047,-0.8265456212820501,4.907010845248029
mp-582619,CdI2,"[Element Cd, Element I]",2,Cd6 I12,0.0,-0.707117188333332,5.071148410876463
mp-571646,CdI2,"[Element Cd, Element I]",2,Cd12 I24,2.3562,-0.8258199516666661,5.019436053962256
mp-571660,CdI2,"[Element Cd, Element I]",2,Cd12 I24,2.3966,-0.826608367777777,4.880565036568425
mp-582084,CdI2,"[Element Cd, Element I]",2,Cd18 I36,2.3743,-0.826385190555554,4.933461700454431
mp-680085,ZnS,"[Element S, Element Zn]",2,Zn44 S44,2.0155,-0.9622368147179371,3.999541079378795
mp-624399,CdI2,"[Element Cd, Element I]",2,Cd9 I18,2.3414,-0.826955782148149,5.351967580838639
mp-680046,CdI2,"[Element Cd, Element I]",2,Cd14 I28,2.3368,-0.825219334761904,5.055521841597733
mp-624400,CdI2,"[Element Cd, Element I]",2,Cd10 I20,2.3318,-0.8269340096666631,5.349401103033569
mp-669358,CdI2,"[Element Cd, Element I]",2,Cd11 I22,2.360999999999999,-0.8249628363636361,5.058476972696654
mp-627557,CdI2,"[Element Cd, Element I]",2,Cd9 I18,2.357,-0.826804184740742,5.326137377382516
mp-647075,ZnS,"[Element S, Element Zn]",2,Zn64 S64,1.9988000000000001,-0.961838825904019,3.994435334097854
mp-624418,CdI2,"[Element Cd, Element I]",2,Cd11 I22,2.3651,-0.824984221515151,5.053938824966056
mp-624406,CdI2,"[Element Cd, Element I]",2,Cd10 I20,2.3357,-0.8268279203333301,5.348811744749517
mp-669334,CdI2,"[Element Cd, Element I]",2,Cd15 I30,2.3407,-0.825032090222221,5.053698175834585
mp-647489,CdI2,"[Element Cd, Element I]",2,Cd7 I14,2.355099999999999,-0.8269972663809521,5.24806092537945
mp-669340,CdI2,"[Element Cd, Element I]",2,Cd14 I28,2.328299999999999,-0.825208792380951,5.054684342546133
mp-624307,Cu7Te4,"[Element Cu, Element Te]",2,Cu14 Te8,0.0,0.084661953636361,7.785848277644575
mp-669360,CdI2,"[Element Cd, Element I]",2,Cd12 I24,2.3388,-0.826831482333333,5.347853388632371
mp-624417,CdI2,"[Element Cd, Element I]",2,Cd11 I22,2.3693,-0.825006754545453,5.055464852912896
mp-669357,CdI2,"[Element Cd, Element I]",2,Cd11 I22,2.3394,-0.826871812787879,5.329119139887194
mp-669326,CdI2,"[Element Cd, Element I]",2,Cd9 I18,2.3663,-0.8267158288148151,5.341737337305559
mp-680047,CdI2,"[Element Cd, Element I]",2,Cd14 I28,2.3383,-0.8252262995238081,5.053836668704508
mp-680055,CdI2,"[Element Cd, Element I]",2,Cd11 I22,2.350399999999999,-0.824998857272726,5.055977779956717
mp-680093,CdI2,"[Element Cd, Element I]",2,Cd11 I22,2.3352,-0.826773860060605,5.3504434989411
mp-680095,CdI2,"[Element Cd, Element I]",2,Cd20 I40,2.325,-0.824939678499999,5.07450230144408
mp-680112,CdI2,"[Element Cd, Element I]",2,Cd11 I22,2.3317,-0.824972741818181,5.054947164955446
mp-680092,CdI2,"[Element Cd, Element I]",2,Cd10 I20,2.330699999999999,-0.8269310203333311,5.342453771857796
mp-680087,ZnS,"[Element S, Element Zn]",2,Zn44 S44,2.0198,-0.9621155848315741,3.99853057589585
mp-680094,CdI2,"[Element Cd, Element I]",2,Cd11 I22,2.3354,-0.8249806351515141,5.055378155136013
mp-680114,CdI2,"[Element Cd, Element I]",2,Cd11 I22,2.3412,-0.8249221736363631,5.05992349377254
mp-680111,CdI2,"[Element Cd, Element I]",2,Cd4 I8,2.366799999999999,-0.8269098231666671,5.279698245460468
mp-680120,CdI2,"[Element Cd, Element I]",2,Cd15 I30,2.3395,-0.8268081766666661,5.248163698758503
mp-680115,CdI2,"[Element Cd, Element I]",2,Cd14 I28,2.3435,-0.8252097433333321,5.053457106821414
mp-680113,CdI2,"[Element Cd, Element I]",2,Cd11 I22,2.3277,-0.825025977575757,5.05138121517163
mp-680133,CdI2,"[Element Cd, Element I]",2,Cd17 I34,2.3396,-0.8251930750980381,5.066772916441074
mp-680116,CdI2,"[Element Cd, Element I]",2,Cd14 I28,2.3354,-0.825218797857142,5.056294106154887
mp-680118,CdI2,"[Element Cd, Element I]",2,Cd15 I30,2.332,-0.826835519777776,5.248211332939374
mp-680119,CdI2,"[Element Cd, Element I]",2,Cd15 I30,2.3369,-0.8250942491111101,5.057760738175562
mp-680144,CdI2,"[Element Cd, Element I]",2,Cd19 I38,2.3251,-0.82497301491228,5.069865474319847
mp-680205,PbI2,"[Element I, Element Pb]",2,Pb15 I30,2.3541,-0.9178337199999991,5.5718802387551385
mp-680148,CdI2,"[Element Cd, Element I]",2,Cd20 I40,2.3215,-0.824943856499999,5.073179928808311
mp-680172,CdI2,"[Element Cd, Element I]",2,Cd22 I44,2.3403,-0.8251264204545451,5.074437188001333
mp-680152,CdI2,"[Element Cd, Element I]",2,Cd15 I30,2.3574,-0.825079236444443,5.046432598643196
mp-705430,MnO2,"[Element Mn, Element O]",2,Mn24 O48,0.0,-1.7108035754214561,4.084483868593693
mp-680146,CdI2,"[Element Cd, Element I]",2,Cd19 I38,2.3352,-0.825006962807017,5.066898210317705
mp-680153,CdI2,"[Element Cd, Element I]",2,Cd21 I42,2.344999999999999,-0.825207489999999,5.071449613260484
mp-680145,CdI2,"[Element Cd, Element I]",2,Cd20 I40,2.3186,-0.8249466964999991,5.074185200291234
mp-703595,Cd13I28,"[Element Cd, Element I]",2,Cd13 I28,0.0,-0.7719902780487791,4.986562420042069
mp-684907,U12O19,"[Element O, Element U]",2,U12 O19,0.0,-3.31833448693548,11.04029039148847
mp-770433,Ag11Hg9,"[Element Ag, Element Hg]",2,Ag11 Hg9,0.0,0.078607919083339,11.843214432671001
mp-775808,MgO,"[Element Mg, Element O]",2,Mg6 O6,3.4119,-2.9062285433333352,2.8242808194548212
mp-680163,CdI2,"[Element Cd, Element I]",2,Cd25 I50,2.3597,-0.8253075982666651,5.07239381888524
mp-684029,CdI2,"[Element Cd, Element I]",2,Cd14 I28,2.3474,-0.8252210797619031,5.061566557635441
mp-752998,U3O5,"[Element O, Element U]",2,U3 O5,0.0,-3.427771539374998,11.005061707046208
mp-2544,Zr2Be17,"[Element Be, Element Zr]",2,Zr2 Be17,0.0,-0.23725090289473502,3.105670175478323
mp-27396,NiCl2,"[Element Cl, Element Ni]",2,Ni1 Cl2,0.0,-0.9834993083333331,3.461216428851331
mp-25236,FeO2,"[Element Fe, Element O]",2,Fe1 O2,0.0,-1.148659716666666,3.824068111731505
mp-2588,YCo3,"[Element Co, Element Y]",2,Y3 Co9,0.0,-0.06666458,7.541135564711174
mp-25571,MoO2,"[Element Mo, Element O]",2,Mo1 O2,0.913899999999999,-1.770659999999999,5.053250169459604
mp-25302,CrO2,"[Element Cr, Element O]",2,Cr1 O2,0.368899999999999,-1.840149146666667,3.786397347464659
mp-25349,MoO2,"[Element Mo, Element O]",2,Mo1 O2,0.0,-1.6038311666666671,5.419742881120965
mp-27484,Tl2O,"[Element O, Element Tl]",2,Tl4 O2,0.5717000000000001,-0.8140924155555621,9.896563816701345
mp-2647067,LaH20,"[Element H, Element La]",2,La1 H20,0.0,0.12263386827380701,1.306174887785038
mp-25433,TiO2,"[Element O, Element Ti]",2,Ti1 O2,2.4516,-3.349036991111111,3.5004323071863492