material_id,formula_pretty,elements,nelements,composition,band_gap,formation_energy_per_atom,density
mp-1227931,Eu16Sb11,"[Element Eu, Element Sb]",2,Eu32 Sb22,0.0,-1.091549374814817,6.570463190163567
mp-1227708,Ca16Sb11,"[Element Ca, Element Sb]",2,Ca32 Sb22,0.0,-1.104081243333332,3.825036740549233
mp-2212763,Ag2S,"[Element Ag, Element S]",2,Ag4 S2,0.6818999999999991,-0.104605967604167,6.074255490692897
mp-531574,Dy11S16,"[Element Dy, Element S]",2,Dy22 S32,0.0,-2.347540835277778,6.614925762344241
mp-530036,Tb11S16,"[Element S, Element Tb]",2,Tb22 S32,0.0,-2.3614440893518562,6.424824607911062
mp-1080370,CeSe2,"[Element Ce, Element Se]",2,Ce16 Se32,0.9447999999999991,-1.414613791979165,2.452819016910894
mp-1224381,HfO2,"[Element Hf, Element O]",2,Hf4 O8,3.7545,-3.934555099999997,10.894330641670964
mp-556296,BaS3,"[Element Ba, Element S]",2,Ba4 S12,1.0473,-1.390724586249999,3.5247779945349933
mp-2503,Pd7Se4,"[Element Pd, Element Se]",2,Pd14 Se8,0.0,-0.300688744659088,9.096939176136326
mp-684744,Fe2N,"[Element Fe, Element N]",2,Fe12 N6,0.0,-0.152442160555553,6.668555220116765
mp-1079810,HfSn2,"[Element Hf, Element Sn]",2,Hf3 Sn6,0.0,-0.261271627777786,10.35305679646259
mp-8938,Si2Mo,"[Element Mo, Element Si]",2,Si6 Mo3,0.0936,-0.43470368222222305,6.324442529501506
mp-10711,VSi2,"[Element Si, Element V]",2,V3 Si6,0.0,-0.4545473,4.741559662719745
mp-1015612,CrN2,"[Element Cr, Element N]",2,Cr3 N6,0.0,0.06717803875,3.7775639966976673
mp-1080351,CeSe2,"[Element Ce, Element Se]",2,Ce3 Se6,0.9211,-1.37796684267361,2.368254590531641
mp-1084800,VGe2,"[Element Ge, Element V]",2,V3 Ge6,0.0,-0.168534333333334,7.521239345869224
mp-2478,NbSi2,"[Element Nb, Element Si]",2,Nb3 Si6,0.0,-0.5183990577777771,5.6364177279959335
mp-6922,SiO2,"[Element O, Element Si]",2,Si3 O6,5.5311,-3.263754841666668,2.435363186396876
mp-559273,SiO2,"[Element O, Element Si]",2,Si24 O48,5.66,-3.057541708472222,0.703245615634362
mp-1222,CrSi2,"[Element Cr, Element Si]",2,Cr3 Si6,0.363899999999999,-0.24404875222222003,5.020764901649191
mp-558118,BeF2,"[Element Be, Element F]",2,Be3 F6,8.0867,-3.5502524672222213,2.142551053422848
mp-7558,TaGe2,"[Element Ge, Element Ta]",2,Ta3 Ge6,0.0,-0.19319700577777701,11.247154056168027
mp-2137,Mg2Ni,"[Element Mg, Element Ni]",2,Mg12 Ni6,0.0,-0.15303366444444402,3.559281694202292
mp-30047,Sn2Mo,"[Element Mo, Element Sn]",2,Sn12 Mo6,0.0,0.06053427666666401,8.842608349778171
mp-363,NbGe2,"[Element Ge, Element Nb]",2,Nb3 Ge6,0.0,-0.34335923555555703,8.1142165056667
mp-517,TaSi2,"[Element Si, Element Ta]",2,Ta3 Si6,0.0,-0.44631093577778,9.19766212055386
mp-8939,Si2W,"[Element Si, Element W]",2,Si6 W3,0.033799999999999004,-0.232044207777777,9.735244213441941
mp-12524,Al2W,"[Element Al, Element W]",2,Al6 W3,0.0,-0.058215970888887004,8.488351739360981
mp-12104,NbSi2,"[Element Nb, Element Si]",2,Nb3 Si6,0.0,-0.518684867777775,5.635735743676683
mp-10851,SiO2,"[Element O, Element Si]",2,Si3 O6,5.5318000000000005,-3.263757990555557,2.435533950482232
mp-11190,VSi2,"[Element Si, Element V]",2,V3 Si6,0.0,-0.454544137777776,4.743349899815101
mp-2675163,WN2,"[Element N, Element W]",2,W3 N6,0.8150000000000001,-0.378293760486112,5.474361791139177
mp-9281,ZnTe,"[Element Te, Element Zn]",2,Zn3 Te3,0.32059999999999905,-0.5340362616666661,6.004452679060092
mp-11192,TaSi2,"[Element Si, Element Ta]",2,Ta3 Si6,0.0,-0.44631669022222303,9.09565966048647
mp-557723,SiO2,"[Element O, Element Si]",2,Si12 O24,3.5601000000000003,-2.992213215555555,2.158066796420247
mp-2872104,CdTe,"[Element Cd, Element Te]",2,Cd3 Te3,0.024999999999999002,-0.45299509000000104,6.149475065292471
mp-11191,CrSi2,"[Element Cr, Element Si]",2,Cr3 Si6,0.363899999999999,-0.23563400777777702,5.172309936665488
mp-32761,SiO,"[Element O, Element Si]",2,Si6 O6,0.0,-2.0471493825,2.58019994380181
mp-1205986,Co3N,"[Element Co, Element N]",2,Co6 N2,0.0,0.159141146562499,8.29690932085424
mp-568607,Al5Mo,"[Element Al, Element Mo]",2,Al10 Mo2,0.0,-0.276001555833332,4.230784225162738
mp-1079760,Pd3N,"[Element N, Element Pd]",2,Pd6 N2,0.0,0.230785347500003,10.106862367559097
mp-1017,Zr3O,"[Element O, Element Zr]",2,Zr6 O2,0.0,-1.538735771875001,6.699842819825176
mp-13154,Fe3C,"[Element C, Element Fe]",2,Fe6 C2,0.0,0.056359594999999006,7.336261016709779
mp-1102877,PrPd5,"[Element Pd, Element Pr]",2,Pr2 Pd10,0.0,-0.46568533361111003,10.50409774972728
mp-2011351,MnF3,"[Element F, Element Mn]",2,Mn6 F18,0.0,-2.816022297787357,4.018274627295925
mp-1080698,Fe3B,"[Element B, Element Fe]",2,Fe6 B2,0.0,0.030755197708334004,7.007942367650874
mp-1804,Fe3N,"[Element Fe, Element N]",2,Fe6 N2,0.0,-0.157779082499999,7.387619510288772
mp-30337,Al5W,"[Element Al, Element W]",2,Al10 W2,0.0,-0.18916691499999802,5.850495544285634
mp-1190767,PrF3,"[Element F, Element Pr]",2,Pr6 F18,5.456,-4.271452075416665,6.219120186533232
mp-1190357,SmAl5,"[Element Al, Element Sm]",2,Sm4 Al20,0.0,-0.28122977208333,4.12785887115865
mp-1191157,NdF3,"[Element F, Element Nd]",2,Nd6 F18,5.6372,-4.214791850208333,6.460011549392619
mp-559091,SiO2,"[Element O, Element Si]",2,Si4 O8,5.4377,-3.261573869166666,2.095487932863067
mp-2033,Ni3N,"[Element N, Element Ni]",2,Ni6 N2,0.0,0.014724856562498001,8.218509328604213
mp-22070,CeF3,"[Element Ce, Element F]",2,Ce6 F18,0.0,-4.173841086249999,6.189625242155872
mp-9761,ReO3,"[Element O, Element Re]",2,Re2 O6,0.0,-2.027662664374999,8.48263958092835
mp-1182980,AgI,"[Element Ag, Element I]",2,Ag1 I1,1.879699999999999,0.355860671666667,0.5321381835694491
mp-680343,Ta21Te13,"[Element Ta, Element Te]",2,Ta84 Te52,0.0,-0.407816109872547,10.215163521493913
mp-1216890,TiNi,"[Element Ni, Element Ti]",2,Ti3 Ni3,0.0,-0.099394568333332,6.354886679184636
mp-1227946,BaGa2,"[Element Ba, Element Ga]",2,Ba1 Ga2,0.0,-0.46222284833333305,5.18666132813952
mp-1101228,V2F9,"[Element F, Element V]",2,V4 F18,0.6412000000000001,-2.865299171363636,2.726284579915759
mp-17783,Mg3Au,"[Element Au, Element Mg]",2,Mg18 Au6,0.0,-0.392609770416664,5.661457342444322
mp-1193566,Tm2S3,"[Element S, Element Tm]",2,Tm12 S18,2.4261,-2.328339994187502,5.802770891070373
mp-1193977,Lu2S3,"[Element Lu, Element S]",2,Lu12 S18,2.4062,-2.315472620687497,6.214893895785854
mp-1178678,YH3,"[Element H, Element Y]",2,Y6 H18,0.0,-0.7154308986458331,3.995203823713405
mp-1105976,LiB9,"[Element B, Element Li]",2,Li2 B18,0.0,0.016677116583333002,2.418965718516178
mp-1330490,CrO3,"[Element Cr, Element O]",2,Cr6 O18,0.0,-0.7719018670833341,3.195119034078958
mp-18707,Mg3Pt,"[Element Mg, Element Pt]",2,Mg18 Pt6,0.0,-0.5617630770833331,5.935119911778635
mp-18511,NdF3,"[Element F, Element Nd]",2,Nd6 F18,7.8031,-4.450880878958332,6.558908009593859
mp-1190632,Na3N,"[Element N, Element Na]",2,Na18 N6,0.0,0.20754177391163803,2.050589395084781
mp-31286,K3Bi,"[Element Bi, Element K]",2,K18 Bi6,0.024699999999999,-0.5012231678125,2.975361818034186
mp-1369275,MoO3,"[Element Mo, Element O]",2,Mo6 O18,0.0,-0.9663209533333331,3.976601603280366
mp-1214686,As2Pd5,"[Element As, Element Pd]",2,As12 Pd30,0.0,-0.350294079999998,10.4995621588911
mp-30370,Cd3Au,"[Element Au, Element Cd]",2,Cd18 Au6,0.0,-0.159890943333332,10.595671382822246
mp-3216237,Yb2S3,"[Element S, Element Yb]",2,Yb12 S18,2.8164,-2.329749201687502,6.078334224076666
mp-32662,WO3,"[Element O, Element W]",2,W6 O18,1.4934,-2.181089881249999,6.107562340722835
mp-1200923,Ni5P2,"[Element Ni, Element P]",2,Ni30 P12,0.011300000000000001,-0.44563825573129,7.792975288479045
mp-1330336,WO3,"[Element O, Element W]",2,W6 O18,0.0,-0.972604153333332,6.310344642024991
mp-1200317,Ni5Ge2,"[Element Ge, Element Ni]",2,Ni30 Ge12,0.0,-0.23945930809523602,9.079245308555516
mp-1337236,TeO3,"[Element O, Element Te]",2,Te6 O18,0.5688,-0.64413938375,4.247249163225846
mp-16316,Co5As2,"[Element As, Element Co]",2,Co30 As12,0.0,-0.055527417976190006,8.968534117345886
mp-18299,UF3,"[Element F, Element U]",2,U6 F18,0.21550000000000002,-3.992617684583336,9.105342335872528
mp-18712,Mg3Pd,"[Element Mg, Element Pd]",2,Mg18 Pd6,0.0,-0.398731526666665,3.885391569922302
mp-569451,Sb2Pd5,"[Element Pd, Element Sb]",2,Sb12 Pd30,0.0,-0.446073763809522,10.82056618811073
mp-941,Ni5As2,"[Element As, Element Ni]",2,Ni30 As12,0.0,-0.21225052071428402,9.009333932546769
mp-704981,Mn5Ge2,"[Element Ge, Element Mn]",2,Mn30 Ge12,0.0,-0.025948323760262,7.930525578174567
mp-542220,Cs3As,"[Element As, Element Cs]",2,Cs18 As6,0.0,-0.21569561578304902,4.092746037706412
mp-542429,Mg3Rh,"[Element Mg, Element Rh]",2,Mg18 Rh6,0.0,-0.33033131791666603,3.965831315444523
mp-334,LaF3,"[Element F, Element La]",2,La6 F18,6.0452,-4.5073675629166665,5.988712293707608
mp-655,Na3As,"[Element As, Element Na]",2,Na18 As6,0.064,-0.5529736389583331,2.434313130356024
mp-690346,WO3,"[Element O, Element W]",2,W6 O18,1.488,-2.180720356666666,6.337957214990244
mp-703459,H2O,"[Element H, Element O]",2,H24 O12,5.5287,-1.278919780277777,1.042226915466507
mp-7463,Cu3P,"[Element Cu, Element P]",2,Cu18 P6,0.0,-0.03335383907738,7.509347797265637
mp-568419,Mg3Ir,"[Element Ir, Element Mg]",2,Mg18 Ir6,0.0,-0.321415998333331,6.044837291329051
mp-1043013,Cr3O8,"[Element Cr, Element O]",2,Cr6 O16,0.0,-1.322169123636363,3.159525883267566
mp-1018018,PdN,"[Element N, Element Pd]",2,Pd2 N2,0.0,0.8740515875000001,7.526674155459878
mp-1007652,InAs,"[Element As, Element In]",2,In2 As2,0.0,-0.38081474124999903,5.521932077387896
mp-1018100,AlSb,"[Element Al, Element Sb]",2,Al2 Sb2,0.9179,-0.24409026249999802,4.178128601351843
mp-1006282,Nd7Co3,"[Element Co, Element Nd]",2,Nd14 Co6,0.0,0.055894276750001005,7.485833296406429
mp-1080309,CeSe2,"[Element Ce, Element Se]",2,Ce4 Se8,0.17979999999999902,-1.658970059062498,5.091461592127182
mp-1004526,WS,"[Element S, Element W]",2,W2 S2,0.0,-0.231474253906249,11.0565156938623
mp-1094902,YMg,"[Element Mg, Element Y]",2,Y2 Mg2,0.0,1.25596724,2.180051688610082
mp-10281,ZnS,"[Element S, Element Zn]",2,Zn4 S4,2.0471,-0.9615670726562511,4.138059521422718
mp-1067451,TcB,"[Element B, Element Tc]",2,Tc2 B2,1.375999999999999,4.101524912159089,0.123179075973288
mp-1105105,I5N2,"[Element I, Element N]",2,I10 N4,0.1607,0.7918150585714281,3.6024344356408413
mp-1094992,MgGa,"[Element Ga, Element Mg]",2,Mg2 Ga2,0.0,0.53104643875,2.46879014497198
mp-1007661,InSb,"[Element In, Element Sb]",2,In2 Sb2,0.0,-0.23224018499999802,5.572424570739726
mp-1018059,GaSb,"[Element Ga, Element Sb]",2,Ga2 Sb2,0.0,-0.21480667750000002,5.514100040316375
mp-1039,MgTe,"[Element Mg, Element Te]",2,Mg2 Te2,2.361199999999999,-1.071546200833333,3.7171666565512123
mp-1017982,TlN,"[Element N, Element Tl]",2,Tl2 N2,0.0,0.733445353333333,9.894046478787867
mp-1012435,PbS,"[Element Pb, Element S]",2,Pb2 S2,0.5949,-0.727595118749996,7.165179808895744
mp-1064405,ZnBi,"[Element Bi, Element Zn]",2,Zn2 Bi2,0.0,0.23942454000000102,7.474214289757465
mp-10645,TbSe,"[Element Se, Element Tb]",2,Tb2 Se2,0.0,-1.471952229505207,5.919768948487772
mp-1097929,HfMg,"[Element Hf, Element Mg]",2,Hf2 Mg2,0.0,0.30954628500000103,7.4063459006824655
mp-1070,CdSe,"[Element Cd, Element Se]",2,Cd2 Se2,0.5724,-0.837606193671875,5.480139995990648
mp-1018040,MgSe,"[Element Mg, Element Se]",2,Mg2 Se2,2.5765000000000002,-1.474296713671875,3.260005132094054
mp-10643,SmSe,"[Element Se, Element Sm]",2,Sm2 Se2,0.0,-1.546944322031251,5.407297302951275
mp-1008559,BP,"[Element B, Element P]",2,B2 P2,1.0624,-0.46922793023809606,2.979764368566962
mp-1017539,ZnO,"[Element O, Element Zn]",2,Zn2 O2,0.45160000000000006,-1.4906765199999992,5.508144570126769
mp-1039121,MgCd,"[Element Cd, Element Mg]",2,Mg2 Cd2,0.0,0.49561487750000105,3.109993649185819
mp-1042978,W3O8,"[Element O, Element W]",2,W6 O16,1.5634000000000001,-1.776247584090907,6.72123423126167
mp-1096804,AgH,"[Element Ag, Element H]",2,Ag2 H2,0.8512000000000001,0.120898396666667,7.757016317640359
mp-1105778,Sc7P3,"[Element P, Element Sc]",2,Sc14 P6,0.0,-1.038444755392858,3.407282348336054
mp-1105837,La7Ir3,"[Element Ir, Element La]",2,La14 Ir6,0.0,-0.585843329000001,8.666006534399811
mp-1105925,La7Pd3,"[Element La, Element Pd]",2,La14 Pd6,0.0,-0.5419555059999991,6.9700722360004725
mp-1106144,Ce7Rh3,"[Element Ce, Element Rh]",2,Ce14 Rh6,0.0,-0.472711688499993,8.3654474170669
mp-1106180,Re7B3,"[Element B, Element Re]",2,Re14 B6,0.0,-0.23253977450000302,18.50329568200192
mp-1105619,Nd7Ni3,"[Element Nd, Element Ni]",2,Nd14 Ni6,0.0,-0.19762896674999902,7.254838458253413
mp-1106092,Sr7Ag3,"[Element Ag, Element Sr]",2,Sr14 Ag6,0.0,-0.150554536499998,3.817101380026945
mp-1181742,CrI2,"[Element Cr, Element I]",2,Cr2 I4,0.0,-0.5345141799999991,4.848406188317259
mp-1106336,Ho7Rh3,"[Element Ho, Element Rh]",2,Ho14 Rh6,0.0,-0.620573199999996,9.71024594253027
mp-1105892,Sm7Pd3,"[Element Pd, Element Sm]",2,Sm14 Pd6,0.0,-0.5301043644999991,7.997413163212831
mp-1106063,Pr7Pt3,"[Element Pr, Element Pt]",2,Pr14 Pt6,0.0,-0.711674994166665,8.757128708874232
mp-1106174,Tb7Rh3,"[Element Rh, Element Tb]",2,Tb14 Rh6,0.0,-0.5993336891666671,9.158208756659528
mp-1106086,Pr7Rh3,"[Element Pr, Element Rh]",2,Pr14 Rh6,0.0,-0.465782061666666,7.38016027527605
mp-1178514,BaO,"[Element Ba, Element O]",2,Ba2 O2,2.1422,-2.806105449999999,4.680060312050471
mp-1183141,AgC,"[Element Ag, Element C]",2,Ag2 C2,0.0,2.245809412916667,6.542021510073919
mp-1106354,Ce7Ni3,"[Element Ce, Element Ni]",2,Ce14 Ni6,0.0,-0.16801153599999802,8.263674858182423
mp-1183149,BAu,"[Element Au, Element B]",2,B2 Au2,0.0,0.8404483029166661,10.933355715229085
mp-1181864,GaN,"[Element Ga, Element N]",2,Ga4 N4,0.8257000000000001,-0.381548616875001,6.011802048415888
mp-1106115,Nd7Pd3,"[Element Nd, Element Pd]",2,Nd14 Pd6,0.0,-0.49328981274999806,7.544708855892455
mp-1182329,Ce7Pt3,"[Element Ce, Element Pt]",2,Ce14 Pt6,0.0,-0.7257247105000031,9.768245853553692
mp-11714,SiC,"[Element C, Element Si]",2,Si4 C4,2.222600000000001,-0.305645473749999,3.228033205690528
mp-1107,Th7Rh3,"[Element Rh, Element Th]",2,Th14 Rh6,0.0,-0.6155273784999961,11.727349384284269
mp-1105567,Nd7Pt3,"[Element Nd, Element Pt]",2,Nd14 Pt6,0.0,-0.7383644812499981,9.032667983890981
mp-1106137,Eu7Au3,"[Element Au, Element Eu]",2,Eu14 Au6,0.0,-0.534830038500004,7.943687260168041
mp-1182893,Al5O8,"[Element Al, Element O]",2,Al10 O16,0.0,-3.231499842307692,3.576748514629643
mp-1105786,Dy7Rh3,"[Element Dy, Element Rh]",2,Dy14 Rh6,0.0,-0.608613185666659,9.458560491491458
mp-1106065,B3Rh7,"[Element B, Element Rh]",2,B6 Rh14,0.0,-0.26315284775000103,10.74813274653018
mp-1106112,Ce7Ir3,"[Element Ce, Element Ir]",2,Ce14 Ir6,0.0,-0.527024764499998,9.968506478602823
mp-1106268,Pr7Pd3,"[Element Pd, Element Pr]",2,Pr14 Pd6,0.0,-0.47278295016666505,7.215248040174861
mp-1184774,IrN,"[Element Ir, Element N]",2,Ir2 N2,0.0,0.584258185000003,14.662461603496181
mp-1184809,InO,"[Element In, Element O]",2,In2 O2,0.0,-1.351075718333332,6.054308349212976
mp-1184565,GeB,"[Element B, Element Ge]",2,Ge2 B2,0.0,0.5502172629166681,4.839802884581213
mp-1186339,NiCl,"[Element Cl, Element Ni]",2,Ni2 Cl2,0.0,-0.32168985124999905,4.417387357466317
mp-1183400,BeH,"[Element Be, Element H]",2,Be2 H2,0.0,0.411445694374999,1.3569997300943961
mp-1183702,CrCl,"[Element Cl, Element Cr]",2,Cr2 Cl2,0.0,-0.171411317916666,2.863116761128369
mp-1183947,CsAc,"[Element Ac, Element Cs]",2,Cs2 Ac2,0.0,0.481641307284483,5.209868144288426
mp-1184548,HPd,"[Element H, Element Pd]",2,H2 Pd2,0.0,-0.089348971874999,9.528947686554025
mp-1184015,GaC,"[Element C, Element Ga]",2,Ga2 C2,0.0,0.9963498899999991,5.248370203690509
mp-1184819,InC,"[Element C, Element In]",2,In2 C2,0.0,1.4557843337499992,6.071845954656573
mp-1184767,InH,"[Element H, Element In]",2,In2 H2,0.0,0.37784271499999905,5.594960866758251
mp-1183990,GaO,"[Element Ga, Element O]",2,Ga2 O2,0.0,-1.384771946249999,5.013758814697267
mp-1185319,LiCl,"[Element Cl, Element Li]",2,Li2 Cl2,5.7373,-2.021952504583333,1.660108131603423
mp-1185301,LiF,"[Element F, Element Li]",2,Li2 F2,0.0,-3.164539748333333,2.208489907016897
mp-1183164,AuC,"[Element Au, Element C]",2,Au2 C2,0.0,1.877627278749997,11.553450581911113
mp-1183545,CaF,"[Element Ca, Element F]",2,Ca2 F2,0.0,-2.8012375125,2.252265922632674
mp-1184482,GdCl,"[Element Cl, Element Gd]",2,Gd2 Cl2,0.0,-1.4781740420833311,5.7586835140367825
mp-1184756,IrI,"[Element I, Element Ir]",2,Ir2 I2,0.0,0.74817909,10.04584802783706
mp-1186364,PPt,"[Element P, Element Pt]",2,P2 Pt2,0.0,-0.40254967367559,9.738501466671348
mp-1183440,BiB,"[Element B, Element Bi]",2,Bi2 B2,0.0,0.8356224979166661,8.617186057953031
mp-1186446,PbC,"[Element C, Element Pb]",2,Pb2 C2,0.0,1.487404713750002,9.556615767135074
mp-1183956,CsLa,"[Element Cs, Element La]",2,Cs2 La2,0.0,0.5700452910344821,4.572522151523603
mp-1183171,AuCl,"[Element Au, Element Cl]",2,Au2 Cl2,0.0,0.091416983749997,7.02720627486064
mp-1184731,HPb,"[Element H, Element Pb]",2,H2 Pb2,0.0,0.483120809999999,8.629053156483593
mp-1185942,MgS,"[Element Mg, Element S]",2,Mg2 S2,0.0,-1.637005008749998,2.064547153226297
mp-1186903,RhS,"[Element Rh, Element S]",2,Rh2 S2,0.0,-0.33868491202219103,6.071555994329905
mp-1183441,BeTe,"[Element Be, Element Te]",2,Be2 Te2,2.271199999999999,-0.564542393333332,4.979386394106737
mp-1183988,GaH,"[Element Ga, Element H]",2,Ga2 H2,0.0,0.35665897374999905,4.619032377386958
mp-1185871,MgH,"[Element H, Element Mg]",2,Mg2 H2,0.0,0.123888946874999,1.653331181295711
mp-1186908,RhBr,"[Element Br, Element Rh]",2,Rh2 Br2,0.0,0.18845299000000001,7.089453982175335
mp-1184046,CuCl,"[Element Cl, Element Cu]",2,Cu2 Cl2,0.5736,-0.483592201249999,4.271258036437935
mp-1184550,GeC,"[Element C, Element Ge]",2,Ge2 C2,2.3757,0.44314771374999906,5.783989013733091
mp-1184680,HIr,"[Element H, Element Ir]",2,H2 Ir2,0.0,0.424228745,17.20621035999171
mp-1184749,IrSe,"[Element Ir, Element Se]",2,Ir2 Se2,0.0,0.20824495578124602,10.481218992875181
mp-1183475,CaBr,"[Element Br, Element Ca]",2,Ca2 Br2,0.0,-1.509928737499999,2.851935243701138
mp-1183656,CdH,"[Element Cd, Element H]",2,Cd2 H2,0.0,0.3771130775,6.413502300551498
mp-1184566,HgC,"[Element C, Element Hg]",2,Hg2 C2,0.0,2.288847001249998,9.93012992086571
mp-12779,CdTe,"[Element Cd, Element Te]",2,Cd2 Te2,0.618599999999999,-0.5581268500000001,5.639652793960689
mp-1188316,Bi2O3,"[Element Bi, Element O]",2,Bi8 O12,1.4737,-1.590899318000004,10.249899008835245
mp-1187501,TlH,"[Element H, Element Tl]",2,Tl2 H2,0.0,0.356886520833331,7.920058450309249
mp-1187728,VI,"[Element I, Element V]",2,V2 I2,0.0,0.34850449250000004,4.6109027819813235
mp-1188617,Sm7Pt3,"[Element Pt, Element Sm]",2,Sm14 Pt6,0.0,-0.768940188999999,9.613093177470832
mp-1187517,TlC,"[Element C, Element Tl]",2,Tl2 C2,0.0,1.981234994583331,9.45127138066347
mp-1188890,Y7Pt3,"[Element Pt, Element Y]",2,Y14 Pt6,0.0,-0.893580143249994,7.414035397692089
mp-1189501,La7Pt3,"[Element La, Element Pt]",2,La14 Pt6,0.0,-0.8605668244999941,8.432212463610115
mp-17535,B3Ru7,"[Element B, Element Ru]",2,B6 Ru14,0.0,-0.14164597925000302,10.80070286923995
mp-1189498,Nd7Rh3,"[Element Nd, Element Rh]",2,Nd14 Rh6,0.0,-0.496828002249998,7.725203392293693
mp-1189638,Sm7Rh3,"[Element Rh, Element Sm]",2,Sm14 Rh6,0.0,-0.536845093,8.231674772283409
mp-1187440,ThCl,"[Element Cl, Element Th]",2,Th2 Cl2,0.0,-1.105877070000005,7.942198466655755
mp-1229277,BaFe12,"[Element Ba, Element Fe]",2,Ba2 Fe24,0.0,0.35209842730769303,6.596874284332483
mp-1232236,PmSe,"[Element Pm, Element Se]",2,Pm2 Se2,0.0,-1.567330283281247,5.222888447326839
mp-13126,ZrN,"[Element N, Element Zr]",2,Zr2 N2,0.0,-1.527013771875005,5.639729072649962
mp-1189474,Y7Rh3,"[Element Rh, Element Y]",2,Y14 Rh6,0.0,-0.566519064499999,5.94159469151198
mp-1196316,Cr7C3,"[Element C, Element Cr]",2,Cr56 C24,0.0,-0.098585171875001,7.055496191048325
mp-1214343,Ce7Pt3,"[Element Ce, Element Pt]",2,Ce14 Pt6,0.0,-0.591453672500006,10.71446689095355
mp-13119,CdO,"[Element Cd, Element O]",2,Cd2 O2,0.0,-1.266895717499998,6.47405750449773
mp-1187584,TmBr,"[Element Br, Element Tm]",2,Tm2 Br2,0.0,-1.223910962500004,7.319191996126452
mp-1188284,Ce7Pd3,"[Element Ce, Element Pd]",2,Ce14 Pd6,0.0,-0.413121604999997,8.196181092391743