material_id,formula_pretty,elements,nelements,composition,band_gap,formation_energy_per_atom,density
mp-1543931,Rb,[Element Rb],1,Rb8,0.0,0.00013048499999900002,1.497344090975367
mp-2204861,Rb,[Element Rb],1,Rb8,0.0,0.008728708750000001,1.4761980234372292
mp-7245,P,[Element P],1,P2,0.0,0.093512971666665,3.251663918351236
mp-1061054,Ge,[Element Ge],1,Ge2,0.0,0.23597901000000102,6.343662522757254
mp-754514,N2,[Element N],1,N2,0.0,1.037821919999999,1.631521344302236
mp-1096869,C,[Element C],1,C71,0.0,0.11787022052816801,0.9956655678956601
mp-1078638,Ca,[Element Ca],1,Ca8,0.0,0.019152001249999002,1.596183616492226
mp-734188,O2,[Element O],1,O12,1.2826,0.43474388499999905,1.580919007643098
mp-723285,O2,[Element O],1,O8,0.0,0.001272293749999,1.479535100160911
mp-1102442,O2,[Element O],1,O12,0.7723,0.7395696983333331,2.885545388562123
mp-137,Ge,[Element Ge],1,Ge12,0.34330000000000005,0.14938990666666702,5.799202086660035
mp-994911,S,[Element S],1,S8,3.3265000000000002,0.042196687187500005,0.07355403342831901
mp-1040910,VO2,"[Element O, Element V]",2,V12 O24,0.9781000000000001,-2.317210477499999,3.706569650458726
mp-1044869,SbO2,"[Element O, Element Sb]",2,Sb12 O24,1.8679000000000001,-1.668299978055555,4.567404823737262
mp-1073146,Mg2Si3,"[Element Mg, Element Si]",2,Mg8 Si12,0.0,0.2075674945,2.395919337849824
mp-1072984,Mg2Si3,"[Element Mg, Element Si]",2,Mg8 Si12,0.0,0.183425799999999,2.412721100102257
mp-1072989,Mg2Si3,"[Element Mg, Element Si]",2,Mg8 Si12,0.0,0.160926878499999,2.223555133687748
mp-1073121,Mg2Si3,"[Element Mg, Element Si]",2,Mg8 Si12,0.0,0.1811593635,2.385162418399904
mp-1001608,C4O3,"[Element C, Element O]",2,C48 O36,0.0519,0.7493088065476181,1.751681830555273
mp-1016069,CrN2,"[Element Cr, Element N]",2,Cr4 N8,0.2328,-0.017336512083332003,3.327169082800194
mp-1016063,CrN2,"[Element Cr, Element N]",2,Cr4 N8,0.12890000000000001,-0.054033927083333,2.637110412541122
mp-1073164,Mg2Si3,"[Element Mg, Element Si]",2,Mg8 Si12,0.0,0.09132888399999901,2.26029265558351
mp-1073451,MgSi2,"[Element Mg, Element Si]",2,Mg4 Si8,0.0,0.247561959166666,2.600417924408074
mp-1073465,MgSi2,"[Element Mg, Element Si]",2,Mg4 Si8,0.0,0.23766056916666603,2.503283526887186
mp-1073130,Mg2Si3,"[Element Mg, Element Si]",2,Mg8 Si12,0.0,0.25794206750000004,2.401285707573123
mp-1073134,Mg2Si3,"[Element Mg, Element Si]",2,Mg8 Si12,0.0,0.18945085450000002,2.350657007936475
mp-1073398,MgSi2,"[Element Mg, Element Si]",2,Mg8 Si16,0.0,0.20275739416666602,2.395830420714301
mp-1073166,Mg2Si3,"[Element Mg, Element Si]",2,Mg8 Si12,0.0,0.17310206699999903,2.3143874070021733
mp-1073316,MgSi2,"[Element Mg, Element Si]",2,Mg4 Si8,0.0,0.172869781666666,2.3645970800105562
mp-1073089,Mg2Si3,"[Element Mg, Element Si]",2,Mg8 Si12,0.0,0.1873695025,2.40536629878372
mp-1073075,Mg2Si3,"[Element Mg, Element Si]",2,Mg8 Si12,0.0,0.281312467,2.331352475134783
mp-1072996,Mg2Si3,"[Element Mg, Element Si]",2,Mg8 Si12,0.0,0.18295004750000002,2.402810646683645
mp-1073012,Mg2Si3,"[Element Mg, Element Si]",2,Mg8 Si12,0.0,0.169351488499999,2.311840318575894
mp-1073021,Mg2Si3,"[Element Mg, Element Si]",2,Mg8 Si12,0.0,0.15756406149999902,2.308198684409883
mp-1073041,Mg2Si3,"[Element Mg, Element Si]",2,Mg8 Si12,0.0,0.15895445499999902,2.342581189580102
mp-1073210,Mg2Si3,"[Element Mg, Element Si]",2,Mg8 Si12,0.0,0.269788752,2.224050627783128
mp-1073232,Mg2Si3,"[Element Mg, Element Si]",2,Mg8 Si12,0.0,0.14795850000000002,2.225963020156653
mp-1073363,MgSi2,"[Element Mg, Element Si]",2,Mg8 Si16,0.0,0.186797357083333,2.286551670090624
mp-1073405,MgSi2,"[Element Mg, Element Si]",2,Mg4 Si8,0.0,0.189919986666666,2.40890240941747
mp-1073371,MgSi2,"[Element Mg, Element Si]",2,Mg4 Si8,0.0,0.176922766666666,2.410469949718406
mp-1073015,Mg2Si3,"[Element Mg, Element Si]",2,Mg8 Si12,0.0,0.18472304850000001,2.3492220634740892
mp-1073037,Mg2Si3,"[Element Mg, Element Si]",2,Mg8 Si12,0.0,0.144373645499999,2.480336457204
mp-1073122,Mg2Si3,"[Element Mg, Element Si]",2,Mg8 Si12,0.0,0.20192560650000002,2.2242847781255533
mp-1073396,MgSi2,"[Element Mg, Element Si]",2,Mg4 Si8,0.0,0.17801538249999901,2.27728771468722
mp-1073061,Mg2Si3,"[Element Mg, Element Si]",2,Mg8 Si12,0.0,0.20484593950000002,2.538671555872106
mp-1073395,MgSi2,"[Element Mg, Element Si]",2,Mg8 Si16,0.0,0.255130814166666,2.552345623979358
mp-1073459,MgSi2,"[Element Mg, Element Si]",2,Mg4 Si8,0.0,0.248619899999999,2.661355999144459
mp-1073358,MgSi2,"[Element Mg, Element Si]",2,Mg4 Si8,0.0,0.15937452666666602,2.237150183975236
mp-1073409,MgSi2,"[Element Mg, Element Si]",2,Mg4 Si8,0.0,0.185604217499999,2.323776848069679
mp-1073519,MgSi2,"[Element Mg, Element Si]",2,Mg4 Si8,0.0,0.189984703333333,2.465059167824239
mp-1073720,MgSi,"[Element Mg, Element Si]",2,Mg6 Si6,0.0,0.17340512666666602,2.377165380316196
mp-1073528,MgSi2,"[Element Mg, Element Si]",2,Mg4 Si8,0.0,0.132578834999999,2.3812226893576
mp-1073530,MgSi2,"[Element Mg, Element Si]",2,Mg4 Si8,0.0,0.215986827499999,2.229795966620356
mp-1073470,MgSi2,"[Element Mg, Element Si]",2,Mg4 Si8,0.0,0.19278391083333302,2.362591098484656
mp-1073493,MgSi2,"[Element Mg, Element Si]",2,Mg8 Si16,0.0,0.173824345833333,2.440113769671888
mp-1073592,MgSi2,"[Element Mg, Element Si]",2,Mg4 Si8,0.0,0.205900298333332,2.413339865023919
mp-1073590,MgSi2,"[Element Mg, Element Si]",2,Mg8 Si16,0.0,0.169590942083332,2.345409011106492
mp-1073730,MgSi,"[Element Mg, Element Si]",2,Mg6 Si6,0.0,0.1526103175,2.226200180678088
mp-1073545,MgSi2,"[Element Mg, Element Si]",2,Mg4 Si8,0.0,0.25662408333333203,2.640338755764391
mp-1073819,MgSi,"[Element Mg, Element Si]",2,Mg12 Si12,0.0,0.126140004999999,2.266508893395316
mp-1073557,MgSi2,"[Element Mg, Element Si]",2,Mg4 Si8,0.0,0.22729358666666602,2.417455620633443
mp-1073623,MgSi2,"[Element Mg, Element Si]",2,Mg4 Si8,0.0,0.17467379499999902,2.435191488186395
mp-1073809,MgSi,"[Element Mg, Element Si]",2,Mg6 Si6,0.0,0.129123764999999,2.172322832166201
mp-1073733,MgSi,"[Element Mg, Element Si]",2,Mg6 Si6,0.0,0.202360349166666,2.439747515534867
mp-1073750,MgSi,"[Element Mg, Element Si]",2,Mg12 Si12,0.0,0.071313884583333,2.233059876070798
mp-1073822,MgSi,"[Element Mg, Element Si]",2,Mg6 Si6,0.0,0.12900074416666601,2.182433597807602
mp-1073721,MgSi,"[Element Mg, Element Si]",2,Mg12 Si12,0.0,0.08357148291666701,2.29282321713626
mp-1073785,MgSi,"[Element Mg, Element Si]",2,Mg6 Si6,0.0,0.12877525583333302,2.322182534172517
mp-1073859,MgSi,"[Element Mg, Element Si]",2,Mg6 Si6,0.0,0.16925799333333302,2.386781946972372
mp-1073904,Mg6Si5,"[Element Mg, Element Si]",2,Mg12 Si10,0.0,0.107174874545454,2.165116015068232
mp-1073483,MgSi2,"[Element Mg, Element Si]",2,Mg4 Si8,0.0,0.18384773583333203,2.3575059681958512
mp-1073562,MgSi2,"[Element Mg, Element Si]",2,Mg4 Si8,0.0,0.254377444166666,2.641436057596999
mp-1073915,Mg6Si5,"[Element Mg, Element Si]",2,Mg12 Si10,0.0,0.13752151136363502,2.211087487195217
mp-1073903,Mg6Si5,"[Element Mg, Element Si]",2,Mg12 Si10,0.0,0.066623427727272,2.257182046987149
mp-1073613,MgSi2,"[Element Mg, Element Si]",2,Mg4 Si8,0.0,0.24086602416666603,2.42149207590665
mp-1073816,MgSi,"[Element Mg, Element Si]",2,Mg6 Si6,0.0,0.094470571666666,2.258835982604329
mp-1073917,Mg6Si5,"[Element Mg, Element Si]",2,Mg12 Si10,0.0,0.09985328727272601,2.2213044405255022
mp-1073857,MgSi,"[Element Mg, Element Si]",2,Mg6 Si6,0.0,0.08365501583333301,2.282776913802168
mp-1073734,MgSi,"[Element Mg, Element Si]",2,Mg6 Si6,0.0,0.10845523083333301,2.193120130137534
mp-1073861,MgSi,"[Element Mg, Element Si]",2,Mg6 Si6,0.0,0.131659663333333,2.291472257381159
mp-1073655,MgSi2,"[Element Mg, Element Si]",2,Mg8 Si16,0.0,0.19490408124999903,2.536655154410846
mp-1073910,Mg6Si5,"[Element Mg, Element Si]",2,Mg12 Si10,0.0,0.049520425454544006,2.23408170856325
mp-1073686,MgSi,"[Element Mg, Element Si]",2,Mg6 Si6,0.0,0.10169729333333301,2.324437931142762
mp-1073695,MgSi,"[Element Mg, Element Si]",2,Mg12 Si12,0.0,0.09275888833333301,2.318822570259637
mp-1073702,MgSi,"[Element Mg, Element Si]",2,Mg12 Si12,0.0,0.12316111458333301,2.296727941905574
mp-1073919,Mg6Si5,"[Element Mg, Element Si]",2,Mg12 Si10,0.0,0.12946909636363602,2.174823895401664
mp-1073665,MgSi2,"[Element Mg, Element Si]",2,Mg4 Si8,0.0,0.22749447249999902,2.566643837072797
mp-1073900,Mg6Si5,"[Element Mg, Element Si]",2,Mg12 Si10,0.0,0.134344772272726,2.190818459404165
mp-1073916,Mg6Si5,"[Element Mg, Element Si]",2,Mg12 Si10,0.0,0.13130103090909,2.236631010507245
mp-1073927,Mg6Si5,"[Element Mg, Element Si]",2,Mg12 Si10,0.0,0.10973560499999901,2.197423546857232
mp-1073877,Mg6Si5,"[Element Mg, Element Si]",2,Mg12 Si10,0.0,0.173279111818181,2.308475862680589
mp-1073998,Mg6Si5,"[Element Mg, Element Si]",2,Mg12 Si10,0.0,0.19692653499999901,2.31818206718428
mp-1073935,Mg6Si5,"[Element Mg, Element Si]",2,Mg12 Si10,0.0,0.07275689636363501,2.288837971028781
mp-1073962,Mg6Si5,"[Element Mg, Element Si]",2,Mg12 Si10,0.0,0.152467113636363,2.2638952233756893
mp-1073950,Mg6Si5,"[Element Mg, Element Si]",2,Mg12 Si10,0.0,0.149714401363636,2.2352387922566352
mp-1074007,Mg6Si5,"[Element Mg, Element Si]",2,Mg12 Si10,0.0,0.14359235772727202,2.169683159720483
mp-1074093,Mg9Si5,"[Element Mg, Element Si]",2,Mg18 Si10,0.0,0.050164098928571,2.167792372609475
mp-1073933,Mg6Si5,"[Element Mg, Element Si]",2,Mg12 Si10,0.0,0.12403212090909001,2.297782722286713
mp-1074008,Mg9Si5,"[Element Mg, Element Si]",2,Mg18 Si10,0.0,0.016059980357142,2.157319845811815
mp-1074066,Mg9Si5,"[Element Mg, Element Si]",2,Mg18 Si10,0.0,0.030294349642856003,2.07108810470386
mp-1074028,Mg9Si5,"[Element Mg, Element Si]",2,Mg18 Si10,0.0,0.034188965357142005,2.091492630571362
mp-1073996,Mg6Si5,"[Element Mg, Element Si]",2,Mg12 Si10,0.0,0.142403693181818,2.344100638760109
mp-1074050,Mg9Si5,"[Element Mg, Element Si]",2,Mg18 Si10,0.0,0.08838071035714201,2.137798566907993
mp-1074023,Mg9Si5,"[Element Mg, Element Si]",2,Mg18 Si10,0.0,0.044241434999999,2.171888545103685
mp-1073934,Mg6Si5,"[Element Mg, Element Si]",2,Mg12 Si10,0.0,0.123252914999999,2.233265196592143
mp-1073940,Mg6Si5,"[Element Mg, Element Si]",2,Mg12 Si10,0.0,0.107484787727272,2.200684820678939
mp-1074041,Mg9Si5,"[Element Mg, Element Si]",2,Mg18 Si10,0.0,0.05718140964285601,2.14156555414484
mp-1074069,Mg9Si5,"[Element Mg, Element Si]",2,Mg18 Si10,0.0,0.048391583214285,2.169596361332945
mp-1074026,Mg9Si5,"[Element Mg, Element Si]",2,Mg18 Si10,0.0,0.08785966107142801,2.148162024371085
mp-1074046,Mg9Si5,"[Element Mg, Element Si]",2,Mg18 Si10,0.0,0.020499387142857,2.130564804964097
mp-1074062,Mg9Si5,"[Element Mg, Element Si]",2,Mg18 Si10,0.0,0.065600488214285,2.12970988189965
mp-1074003,Mg9Si5,"[Element Mg, Element Si]",2,Mg18 Si10,0.0,0.005551356785714,2.162108560122367
mp-1073958,Mg6Si5,"[Element Mg, Element Si]",2,Mg12 Si10,0.0,0.138068449090908,2.224037032685628
mp-1074044,Mg9Si5,"[Element Mg, Element Si]",2,Mg18 Si10,0.0,0.041205285714285,2.144255867422837
mp-1074057,Mg9Si5,"[Element Mg, Element Si]",2,Mg18 Si10,0.0,0.004123977857142001,2.130703233395551
mp-1074061,Mg9Si5,"[Element Mg, Element Si]",2,Mg18 Si10,0.0,0.016739832499999,2.151075588755215
mp-1074063,Mg9Si5,"[Element Mg, Element Si]",2,Mg18 Si10,0.0,0.073569130714285,2.031749902146569
mp-1073929,Mg6Si5,"[Element Mg, Element Si]",2,Mg12 Si10,0.0,0.15629844727272701,2.156402500895486
mp-1074009,Mg9Si5,"[Element Mg, Element Si]",2,Mg18 Si10,0.0,0.054083191428571,2.122665908169673
mp-1074094,Mg4Si7,"[Element Mg, Element Si]",2,Mg8 Si14,0.0,0.18330022590909,2.407545773267757
mp-1074064,Mg9Si5,"[Element Mg, Element Si]",2,Mg18 Si10,0.0,0.10065703714285601,2.191796185048182
mp-1074011,Mg6Si5,"[Element Mg, Element Si]",2,Mg12 Si10,0.0,0.13435156954545302,2.277928494955836
mp-1074088,Mg4Si7,"[Element Mg, Element Si]",2,Mg8 Si14,0.0,0.22540517636363602,2.4793207484729543
mp-1074143,Mg4Si7,"[Element Mg, Element Si]",2,Mg8 Si14,0.0,0.16478938727272702,2.429378414404164
mp-1074209,Mg4Si7,"[Element Mg, Element Si]",2,Mg8 Si14,0.0,0.17638099409090802,2.430809202645344
mp-1074131,Mg4Si7,"[Element Mg, Element Si]",2,Mg8 Si14,0.0,0.20188683727272702,2.407146593947146
mp-1074122,Mg4Si7,"[Element Mg, Element Si]",2,Mg8 Si14,0.0,0.185230219090908,2.340477901518576
mp-1074181,Mg4Si7,"[Element Mg, Element Si]",2,Mg8 Si14,0.0,0.17372606409090902,2.453011980339328
mp-1074199,Mg4Si7,"[Element Mg, Element Si]",2,Mg8 Si14,0.0,0.18938143090909101,2.343578249183308
mp-1074095,Mg9Si5,"[Element Mg, Element Si]",2,Mg18 Si10,0.0,0.09017775392857101,2.197276094224238
mp-1074189,Mg4Si7,"[Element Mg, Element Si]",2,Mg8 Si14,0.0,0.160848535454545,2.3330217105236812
mp-1074263,Mg4Si3,"[Element Mg, Element Si]",2,Mg16 Si12,0.0,0.12202215678571401,2.196907081667182
mp-1074278,Mg4Si3,"[Element Mg, Element Si]",2,Mg16 Si12,0.0,0.1156977975,2.220639091730138
mp-1074279,Mg4Si3,"[Element Mg, Element Si]",2,Mg8 Si6,0.0,0.094791897142857,2.306740446497731
mp-1074288,Mg4Si3,"[Element Mg, Element Si]",2,Mg8 Si6,0.0,0.053103592142857,2.246922897918016
mp-1074264,Mg4Si3,"[Element Mg, Element Si]",2,Mg8 Si6,0.0,0.069477854285714,2.209074055783304
mp-1074345,Mg4Si3,"[Element Mg, Element Si]",2,Mg8 Si6,0.0,0.130800149999999,2.2628260802077502
mp-1074356,Mg4Si3,"[Element Mg, Element Si]",2,Mg8 Si6,0.0,0.022733099285714,2.216142297981173
mp-1074213,Mg4Si7,"[Element Mg, Element Si]",2,Mg8 Si14,0.0,0.226398261818181,2.52900586147728
mp-1074347,Mg4Si3,"[Element Mg, Element Si]",2,Mg16 Si12,0.0,0.11804604535714201,2.213326780050542
mp-1074291,Mg4Si3,"[Element Mg, Element Si]",2,Mg8 Si6,0.0,0.163710110714286,2.3291283896094432
mp-1074135,Mg4Si7,"[Element Mg, Element Si]",2,Mg8 Si14,0.0,0.171256775,2.481760589482704
mp-1074147,Mg4Si7,"[Element Mg, Element Si]",2,Mg8 Si14,0.0,0.17124280590909002,2.381345267999394
mp-1074259,Mg4Si3,"[Element Mg, Element Si]",2,Mg8 Si6,0.0,0.071984507857142,2.072141652310239
mp-1074265,Mg4Si7,"[Element Mg, Element Si]",2,Mg8 Si14,0.0,0.20268958227272701,2.459179200140683
mp-1074272,Mg4Si3,"[Element Mg, Element Si]",2,Mg8 Si6,0.0,0.075161505,2.125271094930523
mp-1074146,Mg4Si7,"[Element Mg, Element Si]",2,Mg8 Si14,0.0,0.179111155454545,2.349138560279426
mp-1074145,Mg4Si7,"[Element Mg, Element Si]",2,Mg8 Si14,0.0,0.16060255136363602,2.385856265173219
mp-1074218,Mg4Si7,"[Element Mg, Element Si]",2,Mg8 Si14,0.0,0.19526300409090802,2.496191019205699
mp-1074320,Mg4Si3,"[Element Mg, Element Si]",2,Mg8 Si6,0.0,0.07907966500000001,2.210140307459688
mp-1074292,Mg4Si3,"[Element Mg, Element Si]",2,Mg8 Si6,0.0,0.059995609285714006,2.119522531746178
mp-1074207,Mg4Si7,"[Element Mg, Element Si]",2,Mg8 Si14,0.0,0.166767286818181,2.427177526054557
mp-1074346,Mg4Si3,"[Element Mg, Element Si]",2,Mg8 Si6,0.0,0.069991993571428,2.224105580227107
mp-1074349,Mg4Si3,"[Element Mg, Element Si]",2,Mg8 Si6,0.0,0.121133989285714,2.142278525521093
mp-1074338,Mg4Si3,"[Element Mg, Element Si]",2,Mg8 Si6,0.0,0.081010159285714,2.286132212592289
mp-1074350,Mg4Si3,"[Element Mg, Element Si]",2,Mg8 Si6,0.0,0.127348812142857,2.238577983144155
mp-1074283,Mg4Si3,"[Element Mg, Element Si]",2,Mg8 Si6,0.0,0.090420655,2.2122659685572
mp-1074194,Mg4Si7,"[Element Mg, Element Si]",2,Mg8 Si14,0.0,0.157131259545454,2.446511834218508
mp-1074344,Mg4Si3,"[Element Mg, Element Si]",2,Mg16 Si12,0.0,0.115737660357142,2.1506714338249022
mp-1074178,Mg4Si7,"[Element Mg, Element Si]",2,Mg8 Si14,0.0,0.16456210499999901,2.398603251298077
mp-1074276,Mg4Si3,"[Element Mg, Element Si]",2,Mg8 Si6,0.0,0.037336630714285,2.2250252940707282
mp-1074327,Mg4Si3,"[Element Mg, Element Si]",2,Mg16 Si12,0.0,0.13632797928571402,2.26871123816598
mp-1074458,Mg4Si3,"[Element Mg, Element Si]",2,Mg16 Si12,0.0,0.101227111428571,2.218288678401294
mp-1074517,Mg4Si3,"[Element Mg, Element Si]",2,Mg8 Si6,0.0,0.07602140642857101,2.251892960062293
mp-1074542,Mg4Si3,"[Element Mg, Element Si]",2,Mg16 Si12,0.0,0.093783675714285,2.276124198954243
mp-1074396,Mg4Si3,"[Element Mg, Element Si]",2,Mg8 Si6,0.0,0.211231042857142,2.102487616146489
mp-1074429,Mg4Si3,"[Element Mg, Element Si]",2,Mg16 Si12,0.0,0.127588616428571,2.235746630068737
mp-1074408,Mg4Si3,"[Element Mg, Element Si]",2,Mg8 Si6,0.0,0.072215727857143,2.10708043794321
mp-1074466,Mg4Si3,"[Element Mg, Element Si]",2,Mg8 Si6,0.0,0.067240105714286,2.114649186937169
mp-1074500,Mg4Si3,"[Element Mg, Element Si]",2,Mg8 Si6,0.0,0.082193120714285,2.270536390729236
mp-1074546,Mg4Si3,"[Element Mg, Element Si]",2,Mg16 Si12,0.0,0.122556941071428,2.271817972294869
mp-1074668,Mg2Si,"[Element Mg, Element Si]",2,Mg8 Si4,0.0,0.096807770833333,2.1265178397007922
mp-1074465,Mg4Si3,"[Element Mg, Element Si]",2,Mg8 Si6,0.0,0.09461194285714301,2.142903627568436
mp-1074528,Mg4Si3,"[Element Mg, Element Si]",2,Mg16 Si12,0.0,0.093612101071428,2.171906649931871
mp-1074562,Mg4Si3,"[Element Mg, Element Si]",2,Mg8 Si6,0.0,0.051884088571428004,2.165541429479862
mp-1074433,Mg4Si3,"[Element Mg, Element Si]",2,Mg8 Si6,0.0,0.092917694285714,2.285184341130832
mp-1074468,Mg4Si3,"[Element Mg, Element Si]",2,Mg16 Si12,0.0,0.11022871714285701,2.153764413913086
mp-1074382,Mg4Si3,"[Element Mg, Element Si]",2,Mg8 Si6,0.0,0.054284232142857006,2.196541453200214
mp-1074380,Mg4Si3,"[Element Mg, Element Si]",2,Mg8 Si6,0.0,0.17256465,2.092283252062221
mp-1074636,Mg2Si,"[Element Mg, Element Si]",2,Mg8 Si4,0.0,0.0901316875,2.081958751303847
mp-1074665,Mg2Si,"[Element Mg, Element Si]",2,Mg8 Si4,0.0,0.134009732499999,2.016040739362632
mp-1074386,Mg4Si3,"[Element Mg, Element Si]",2,Mg8 Si6,0.0,0.11251684928571401,2.21888243544904
mp-1074388,Mg4Si3,"[Element Mg, Element Si]",2,Mg16 Si12,0.0,0.132454677142857,2.235260210032266
mp-1074404,Mg4Si3,"[Element Mg, Element Si]",2,Mg8 Si6,0.0,0.050528463571428005,2.140148630093371
mp-1074413,Mg4Si3,"[Element Mg, Element Si]",2,Mg8 Si6,0.0,0.16875291142857102,2.282878174864551
mp-1074455,Mg4Si3,"[Element Mg, Element Si]",2,Mg8 Si6,0.0,0.10257705857142801,2.063270497730818
mp-1074619,Mg2Si,"[Element Mg, Element Si]",2,Mg8 Si4,0.0,0.09087444333333301,2.05226472625971
mp-1074644,Mg2Si,"[Element Mg, Element Si]",2,Mg8 Si4,0.0,0.06505825333333301,2.111072371300746
mp-1074472,Mg4Si3,"[Element Mg, Element Si]",2,Mg8 Si6,0.0,0.096243579285714,2.24143338148267
mp-1074526,Mg4Si3,"[Element Mg, Element Si]",2,Mg8 Si6,0.0,0.084064015,2.289762807073959
mp-1074611,Mg4Si3,"[Element Mg, Element Si]",2,Mg8 Si6,0.0,0.11624945571428501,2.193196402899667
mp-1074639,Mg4Si3,"[Element Mg, Element Si]",2,Mg16 Si12,0.0,0.09096921571428501,2.22598199423671
mp-1074587,Mg4Si3,"[Element Mg, Element Si]",2,Mg8 Si6,0.0,0.136024107142857,2.206650433118107
mp-1074613,Mg2Si,"[Element Mg, Element Si]",2,Mg8 Si4,0.0,0.10325027916666601,2.143011795436842
mp-1074417,Mg4Si3,"[Element Mg, Element Si]",2,Mg8 Si6,0.0,0.06487637428571401,2.222360528739046
mp-1074518,Mg4Si3,"[Element Mg, Element Si]",2,Mg8 Si6,0.0,0.092740971428571,2.186078761592176
mp-1074519,Mg4Si3,"[Element Mg, Element Si]",2,Mg16 Si12,0.0,0.108341423928571,2.172361259519402
mp-1074545,Mg4Si3,"[Element Mg, Element Si]",2,Mg16 Si12,0.0,0.10058147071428501,2.212851800895999
mp-1074489,Mg4Si3,"[Element Mg, Element Si]",2,Mg8 Si6,0.0,0.06832364571428501,2.170356760462724
mp-1074588,Mg4Si3,"[Element Mg, Element Si]",2,Mg16 Si12,0.0,0.122353732857142,2.171161538647396
mp-1074597,Mg4Si3,"[Element Mg, Element Si]",2,Mg8 Si6,0.0,0.10499455285714202,2.230761063912732
mp-1074553,Mg4Si3,"[Element Mg, Element Si]",2,Mg16 Si12,0.0,0.132799025357142,2.2532056053800362
mp-1074700,Mg2Si,"[Element Mg, Element Si]",2,Mg8 Si4,0.0,0.05334623333333301,2.114831813851248
mp-1074681,Mg2Si,"[Element Mg, Element Si]",2,Mg8 Si4,0.0,0.0771083275,2.234089624744334
mp-1074841,Mg7Si4,"[Element Mg, Element Si]",2,Mg14 Si8,0.0,0.11762583545454501,2.138554028940706
mp-1074815,Mg7Si4,"[Element Mg, Element Si]",2,Mg14 Si8,0.0,0.19352886999999902,2.15512945025155
mp-1074792,Mg7Si4,"[Element Mg, Element Si]",2,Mg14 Si8,0.0,0.071901034545454,2.191444453089014
mp-1074799,Mg7Si4,"[Element Mg, Element Si]",2,Mg14 Si8,0.0,0.108090034545454,2.101593144955307
mp-1074703,Mg2Si,"[Element Mg, Element Si]",2,Mg8 Si4,0.0,0.113334551666666,2.062496649293492